

     ************************************************************************
     *************** Dalton - An Electronic Structure Program ***************
     ************************************************************************

    This is output from DALTON release Dalton2019.alpha (2019)
         ( Web site: http://daltonprogram.org )

   ----------------------------------------------------------------------------

    NOTE:
     
    Dalton is an experimental code for the evaluation of molecular
    properties using (MC)SCF, DFT, CI, and CC wave functions.
    The authors accept no responsibility for the performance of
    the code or for the correctness of the results.
     
    The code (in whole or part) is provided under a licence and
    is not to be reproduced for further distribution without
    the written permission of the authors or their representatives.
     
    See the home page "http://daltonprogram.org" for further information.
     
    If results obtained with this code are published,
    the appropriate citations would be both of:
     
       K. Aidas, C. Angeli, K. L. Bak, V. Bakken, R. Bast,
       L. Boman, O. Christiansen, R. Cimiraglia, S. Coriani,
       P. Dahle, E. K. Dalskov, U. Ekstroem,
       T. Enevoldsen, J. J. Eriksen, P. Ettenhuber, B. Fernandez,
       L. Ferrighi, H. Fliegl, L. Frediani, K. Hald, A. Halkier,
       C. Haettig, H. Heiberg, T. Helgaker, A. C. Hennum,
       H. Hettema, E. Hjertenaes, S. Hoest, I.-M. Hoeyvik,
       M. F. Iozzi, B. Jansik, H. J. Aa. Jensen, D. Jonsson,
       P. Joergensen, J. Kauczor, S. Kirpekar,
       T. Kjaergaard, W. Klopper, S. Knecht, R. Kobayashi, H. Koch,
       J. Kongsted, A. Krapp, K. Kristensen, A. Ligabue,
       O. B. Lutnaes, J. I. Melo, K. V. Mikkelsen, R. H. Myhre,
       C. Neiss, C. B. Nielsen, P. Norman, J. Olsen,
       J. M. H. Olsen, A. Osted, M. J. Packer, F. Pawlowski,
       T. B. Pedersen, P. F. Provasi, S. Reine, Z. Rinkevicius,
       T. A. Ruden, K. Ruud, V. Rybkin, P. Salek, C. C. M. Samson,
       A. Sanchez de Meras, T. Saue, S. P. A. Sauer,
       B. Schimmelpfennig, K. Sneskov, A. H. Steindal,
       K. O. Sylvester-Hvid, P. R. Taylor, A. M. Teale,
       E. I. Tellgren, D. P. Tew, A. J. Thorvaldsen, L. Thoegersen,
       O. Vahtras, M. A. Watson, D. J. D. Wilson, M. Ziolkowski
       and H. Agren,
       "The Dalton quantum chemistry program system",
       WIREs Comput. Mol. Sci. 2014, 4:269–284 (doi: 10.1002/wcms.1172)
     
    and
     
       Dalton, a molecular electronic structure program,
       Release Dalton2019.alpha (2019), see http://daltonprogram.org
   ----------------------------------------------------------------------------

    Authors in alphabetical order (major contribution(s) in parenthesis):

  Kestutis Aidas,           Vilnius University,           Lithuania   (QM/MM)
  Celestino Angeli,         University of Ferrara,        Italy       (NEVPT2)
  Keld L. Bak,              UNI-C,                        Denmark     (AOSOPPA, non-adiabatic coupling, magnetic properties)
  Vebjoern Bakken,          University of Oslo,           Norway      (DALTON; geometry optimizer, symmetry detection)
  Radovan Bast,             UiT The Arctic U. of Norway,  Norway      (DALTON installation and execution frameworks)
  Pablo Baudin,             University of Valencia,       Spain       (Cholesky excitation energies)
  Linus Boman,              NTNU,                         Norway      (Cholesky decomposition and subsystems)
  Ove Christiansen,         Aarhus University,            Denmark     (CC module)
  Renzo Cimiraglia,         University of Ferrara,        Italy       (NEVPT2)
  Sonia Coriani,            Technical Univ. of Denmark,   Denmark     (CC module, MCD in RESPONS)
  Janusz Cukras,            University of Trieste,        Italy       (MChD in RESPONS)
  Paal Dahle,               University of Oslo,           Norway      (Parallelization)
  Erik K. Dalskov,          UNI-C,                        Denmark     (SOPPA)
  Thomas Enevoldsen,        Univ. of Southern Denmark,    Denmark     (SOPPA)
  Janus J. Eriksen,         Aarhus University,            Denmark     (Polarizable embedding model, TDA)
  Rasmus Faber,             University of Copenhagen,     Denmark     (Vib.avg. NMR with SOPPA, parallel AO-SOPPA)
  Tobias Fahleson,          KTH Stockholm,                Sweden      (Damped cubic response)
  Berta Fernandez,          U. of Santiago de Compostela, Spain       (doublet spin, ESR in RESPONS)
  Lara Ferrighi,            Aarhus University,            Denmark     (PCM Cubic response)
  Heike Fliegl,             University of Oslo,           Norway      (CCSD(R12))
  Luca Frediani,            UiT The Arctic U. of Norway,  Norway      (PCM)
  Bin Gao,                  UiT The Arctic U. of Norway,  Norway      (Gen1Int library)
  Christof Haettig,         Ruhr-University Bochum,       Germany     (CC module)
  Kasper Hald,              Aarhus University,            Denmark     (CC module)
  Asger Halkier,            Aarhus University,            Denmark     (CC module)
  Frederik Beyer Hansen,    University of Copenhagen,     Denmark     (Parallel AO-SOPPA)
  Erik D. Hedegaard,        Univ. of Southern Denmark,    Denmark     (Polarizable embedding model, QM/MM)
  Hanne Heiberg,            University of Oslo,           Norway      (geometry analysis, selected one-electron integrals)
  Trygve Helgaker,          University of Oslo,           Norway      (DALTON; ABACUS, ERI, DFT modules, London, and much more)
  Alf Christian Hennum,     University of Oslo,           Norway      (Parity violation)
  Hinne Hettema,            University of Auckland,       New Zealand (quadratic response in RESPONS; SIRIUS supersymmetry)
  Eirik Hjertenaes,         NTNU,                         Norway      (Cholesky decomposition)
  Pi A. B. Haase,           University of Copenhagen,     Denmark     (Triplet AO-SOPPA)
  Maria Francesca Iozzi,    University of Oslo,           Norway      (RPA)
  Christoph Jacob           TU Braunschweig               Germany     (Frozen density embedding model)
  Brano Jansik              Technical Univ. of Ostrava    Czech Rep.  (DFT cubic response)
  Hans Joergen Aa. Jensen,  Univ. of Southern Denmark,    Denmark     (DALTON; SIRIUS, RESPONS, ABACUS modules, London, and much more)
  Dan Jonsson,              UiT The Arctic U. of Norway,  Norway      (cubic response in RESPONS module)
  Poul Joergensen,          Aarhus University,            Denmark     (RESPONS, ABACUS, and CC modules)
  Maciej Kaminski,          University of Warsaw,         Poland      (CPPh in RESPONS)
  Joanna Kauczor,           Linkoeping University,        Sweden      (Complex polarization propagator (CPP) module)
  Sheela Kirpekar,          Univ. of Southern Denmark,    Denmark     (Mass-velocity & Darwin integrals)
  Wim Klopper,              KIT Karlsruhe,                Germany     (R12 code in CC, SIRIUS, and ABACUS modules)
  Stefan Knecht,            ETH Zurich,                   Switzerland (Parallel CI and MCSCF)
  Rika Kobayashi,           Australian National Univ.,    Australia   (DIIS in CC, London in MCSCF)
  Henrik Koch,              NTNU,                         Norway      (CC module, Cholesky decomposition)
  Jacob Kongsted,           Univ. of Southern Denmark,    Denmark     (Polarizable embedding model, QM/MM)
  Andrea Ligabue,           University of Modena,         Italy       (CTOCD, AOSOPPA)
  Nanna H. List             Univ. of Southern Denmark,    Denmark     (Polarizable embedding model)
  Ola B. Lutnaes,           University of Oslo,           Norway      (DFT Hessian)
  Juan I. Melo,             University of Buenos Aires,   Argentina   (LRESC, Relativistic Effects on NMR Shieldings)
  Kurt V. Mikkelsen,        University of Copenhagen,     Denmark     (MC-SCRF and QM/MM)
  Rolf H. Myhre,            NTNU,                         Norway      (Subsystems and CC3)
  Christian Neiss,          Univ. Erlangen-Nuernberg,     Germany     (CCSD(R12))
  Christian B. Nielsen,     University of Copenhagen,     Denmark     (QM/MM)
  Patrick Norman,           KTH Stockholm,                Sweden      (Cubic response and complex frequency response in RESPONS)
  Jeppe Olsen,              Aarhus University,            Denmark     (SIRIUS CI/density modules)
  Jogvan Magnus H. Olsen,   Univ. of Southern Denmark,    Denmark     (Polarizable embedding model, QM/MM)
  Anders Osted,             Copenhagen University,        Denmark     (QM/MM)
  Martin J. Packer,         University of Sheffield,      UK          (SOPPA)
  Filip Pawlowski,          Kazimierz Wielki University,  Poland      (CC3)
  Morten N. Pedersen,       Univ. of Southern Denmark,    Denmark     (Polarizable embedding model)
  Thomas B. Pedersen,       University of Oslo,           Norway      (Cholesky decomposition)
  Patricio F. Provasi,      University of Northeastern,   Argentina   (Analysis of coupling constants in localized orbitals)
  Zilvinas Rinkevicius,     KTH Stockholm,                Sweden      (open-shell DFT, ESR)
  Elias Rudberg,            KTH Stockholm,                Sweden      (DFT grid and basis info)
  Torgeir A. Ruden,         University of Oslo,           Norway      (Numerical derivatives in ABACUS)
  Kenneth Ruud,             UiT The Arctic U. of Norway,  Norway      (DALTON; ABACUS magnetic properties and much more)
  Pawel Salek,              KTH Stockholm,                Sweden      (DALTON; DFT code)
  Claire C. M. Samson       University of Karlsruhe       Germany     (Boys localization, r12 integrals in ERI)
  Alfredo Sanchez de Meras, University of Valencia,       Spain       (CC module, Cholesky decomposition)
  Trond Saue,               Paul Sabatier University,     France      (direct Fock matrix construction)
  Stephan P. A. Sauer,      University of Copenhagen,     Denmark     (SOPPA(CCSD), SOPPA prop., AOSOPPA, vibrational g-factors)
  Andre S. P. Gomes,        CNRS/Universite de Lille,     France      (Frozen density embedding model)
  Bernd Schimmelpfennig,    Forschungszentrum Karlsruhe,  Germany     (AMFI module)
  Kristian Sneskov,         Aarhus University,            Denmark     (Polarizable embedding model, QM/MM)
  Arnfinn H. Steindal,      UiT The Arctic U. of Norway,  Norway      (parallel QM/MM, Polarizable embedding model)
  Casper Steinmann,         Univ. of Southern Denmark,    Denmark     (QFIT, Polarizable embedding model)
  K. O. Sylvester-Hvid,     University of Copenhagen,     Denmark     (MC-SCRF)
  Peter R. Taylor,          VLSCI/Univ. of Melbourne,     Australia   (Symmetry handling ABACUS, integral transformation)
  Andrew M. Teale,          University of Nottingham,     England     (DFT-AC, DFT-D)
  David P. Tew,             University of Bristol,        England     (CCSD(R12))
  Olav Vahtras,             KTH Stockholm,                Sweden      (triplet response, spin-orbit, ESR, TDDFT, open-shell DFT)
  Lucas Visscher,           Vrije Universiteit Amsterdam, Netherlands (Frozen density embedding model)
  David J. Wilson,          La Trobe University,          Australia   (DFT Hessian and DFT magnetizabilities)
  Hans Agren,               KTH Stockholm,                Sweden      (SIRIUS module, RESPONS, MC-SCRF solvation model)
 --------------------------------------------------------------------------------

     Date and time (Linux)  : Thu May  7 10:42:40 2020
     Host name              : s74p30.deic.sdu.dk                      

 * Work memory size             :   307200000 =  2.289 gigabytes.

 * Directories for basis set searches:
   1) /home/salvatore/ECD/OxygenPeroxide
   2) /gpfs/gss1/work/sdujk/foeroyingur/Programs/dalton/build/pe/develop/basis


Compilation information
-----------------------

 Who compiled             | foeroyingur
 Host                     | fe1.deic.sdu.dk
 System                   | Linux-3.10.0-327.36.3.el7.x86_64
 CMake generator          | Unix Makefiles
 Processor                | x86_64
 64-bit integers          | OFF
 MPI                      | ON
 Fortran compiler         | /opt/sys/apps/intel/2018.05/impi_latest/intel64/bi
                          | n/mpiifort
 Fortran compiler version | unknown
 C compiler               | /opt/sys/apps/intel/2018.05/impi_latest/intel64/bi
                          | n/mpiicc
 C compiler version       | unknown
 C++ compiler             | /opt/sys/apps/intel/2018.05/impi_latest/intel64/bi
                          | n/mpiicpc
 C++ compiler version     | unknown
 Static linking           | OFF
 Last Git revision        | c988ec84aab2c775c476a86e7d3049a3f15e3f66
 Git branch               | pe/develop
 Configuration time       | 2019-09-25 16:51:26.133160

 * MPI parallel run using 96 processes.


   Content of the .dal input file
 ----------------------------------

**DALTON INPUT
.DIRECT
.RUN RESPONSE
**WAVE fUNCTIONS
.DFT
B3LYP
**INTEGRAL
.ANGMOM
.ROTSTR
.DIPVEL
**RESPONSE
*QUADRATIC
.TPCD
.ROOTS
6
**END OF DALTON INPUT


   Content of the .mol file
 ----------------------------

BASIS
aug-cc-pV5Z
per_inv.xyz
Generated by Open Babel. Check overall charge below.
AtomTypes=2 Charge=0 NoSymmetry Angstrom
Charge=8.0 Atoms=2
O            -1.1693000000   -0.4339500000   -0.0676600000
O             0.2939900000   -0.2588400000    0.0683800000
Charge=1.0 Atoms=2
H            -1.3705500000   -0.7504000000   -0.9405000000
H             0.6154000000   -0.8132300000    0.7697000000


       *******************************************************************
       *********** Output from DALTON general input processing ***********
       *******************************************************************

 --------------------------------------------------------------------------------
   Overall default print level:    0
   Print level for DALTON.STAT:    1

    Parallel calculation using MPI
    AO-direct calculation (in sections where implemented)
    HERMIT 1- and 2-electron integral sections will be executed
    "Old" integral transformation used (limited to max 255 basis functions)
    Wave function sections will be executed (SIRIUS module)
    Dynamic molecular response properties section will be executed (RESPONSE module)
 --------------------------------------------------------------------------------


   ****************************************************************************
   *************** Output of molecule and basis set information ***************
   ****************************************************************************


    The two title cards from your ".mol" input:
    ------------------------------------------------------------------------
 1: per_inv.xyz                                                             
 2: Generated by Open Babel. Check overall charge below.                    
    ------------------------------------------------------------------------

  Coordinates are entered in Angstrom and converted to atomic units.
          - Conversion factor : 1 bohr = 0.52917721 A

  Atomic type no.    1
  --------------------
  Nuclear charge:   8.00000
  Number of symmetry independent centers:    2
  Number of basis sets to read;    2
  Basis set file used for this atomic type with Z =   8 :
     "/gpfs/gss1/work/sdujk/foeroyingur/Programs/dalton/build/pe/develop/basis/aug-cc-pV5Z"

  Atomic type no.    2
  --------------------
  Nuclear charge:   1.00000
  Number of symmetry independent centers:    2
  Number of basis sets to read;    2
  Basis set file used for this atomic type with Z =   1 :
     "/gpfs/gss1/work/sdujk/foeroyingur/Programs/dalton/build/pe/develop/basis/aug-cc-pV5Z"


                         SYMGRP: Point group information
                         -------------------------------

@    Point group: C1 


                                 Isotopic Masses
                                 ---------------

                           O          15.994915
                           O          15.994915
                           H           1.007825
                           H           1.007825

                       Total mass:    34.005480 amu
                       Natural abundance:  99.491 %

 Center-of-mass coordinates (a.u.):   -0.820318   -0.703364   -0.008926


  Atoms and basis sets
  --------------------

  Number of atom types :    2
  Total number of atoms:    4

  Basis set used is "aug-cc-pV5Z" from the basis set library.

  label    atoms   charge   prim   cont     basis
  ----------------------------------------------------------------------
  O           2    8.0000   144   127      [15s9p5d4f3g2h|7s6p5d4f3g2h]                       
  H           2    1.0000    83    80      [9s5p4d3f2g|6s5p4d3f2g]                            
  ----------------------------------------------------------------------
  total:      4   18.0000   454   414
  ----------------------------------------------------------------------
  Spherical harmonic basis used.

  Threshold for neglecting AO integrals:  1.00D-12


  Cartesian Coordinates (a.u.)
  ----------------------------

  Total number of coordinates:   12
  O       :     1  x  -2.2096567580    2  y  -0.8200466519    3  z  -0.1278588696
  O       :     4  x   0.5555605835    5  y  -0.4891367102    6  z   0.1292194724
  H       :     7  x  -2.5899641406    8  y  -1.4180504842    9  z  -1.7772874206
  H       :    10  x   1.1629374573   11  y  -1.5367819766   12  z   1.4545221984


   Interatomic separations (in Angstrom):
   --------------------------------------

            O           O           H           H     
            ------      ------      ------      ------
 O     :    0.000000
 O     :    1.479996    0.000000
 H     :    0.949996    2.007527    0.000000
 H     :    2.007531    0.950001    2.621589    0.000000


  Max    interatomic separation is    2.6216 Angstrom (    4.9541 Bohr)
  between atoms    4 and    3, "H     " and "H     ".

  Min HX interatomic separation is    0.9500 Angstrom (    1.7952 Bohr)

  Min YX interatomic separation is    1.4800 Angstrom (    2.7968 Bohr)


  Bond distances (Angstrom):
  --------------------------

                  atom 1     atom 2       distance
                  ------     ------       --------
  bond distance:  O          O            1.479996
  bond distance:  H          O            0.949996
  bond distance:  H          O            0.950001


  Bond angles (degrees):
  ----------------------

                  atom 1     atom 2     atom 3         angle
                  ------     ------     ------         -----
  bond angle:     O          O          H            109.470
  bond angle:     O          O          H            109.470




 Principal moments of inertia (u*A**2) and principal axes
 --------------------------------------------------------

   IA       1.447108          0.979006    0.100112    0.177552
   IB      20.294255         -0.153457   -0.211309    0.965298
   IC      20.980789         -0.134156    0.972279    0.191510


 Rotational constants
 --------------------

               A                   B                   C

         349233.8102          24902.5646          24087.7024 MHz
           11.649186            0.830660            0.803479 cm-1


@  Nuclear repulsion energy :   36.215269029217 Hartree


                     .---------------------------------------.
                     | Starting in Integral Section (HERMIT) |
                     `---------------------------------------'



 ***************************************************************************************
 ****************** Output from **INTEGRALS input processing (HERMIT) ******************
 ***************************************************************************************



    *************************************************************************
    ****************** Output from HERMIT input processing ******************
    *************************************************************************


 Default print level:        1

 Calculation of one-electron Hamiltonian integrals.

 The following one-electron property integrals are calculated as requested:
          - overlap integrals
          - dipole velocity integrals
          - electronic angular momentum around the origin
          - Rotational strength integrals

 Center of mass  (bohr):     -0.820318398080     -0.703364005495     -0.008925859412
 Operator center (bohr):      0.000000000000      0.000000000000      0.000000000000
 Gauge origin    (bohr):      0.000000000000      0.000000000000      0.000000000000
 Dipole origin   (bohr):      0.000000000000      0.000000000000      0.000000000000


     ************************************************************************
     ************************** Output from HERINT **************************
     ************************************************************************



                      Nuclear contribution to dipole moments
                      --------------------------------------

                 au               Debye          C m (/(10**-30)

      x    -14.65979608       -37.26148256      -124.29092714
      y    -13.42829936       -34.13133031      -113.84986313
      z     -0.31188040        -0.79272085        -2.64423215


  Time used in ONEDRV     is       0.15 seconds
  Time used in ANGMOM     is       0.12 seconds
  Time used in ROTSTR     is       0.11 seconds
  Time used in GABGEN     is       3.89 seconds
  Total CPU  time used in HERMIT:   4.76 seconds
  Total wall time used in HERMIT:   5.06 seconds


                        .----------------------------------.
                        | End of Integral Section (HERMIT) |
                        `----------------------------------'



                   .--------------------------------------------.
                   | Starting in Wave Function Section (SIRIUS) |
                   `--------------------------------------------'


 *** Output from Huckel module :

     Using EWMO model:          T
     Using EHT  model:          F
     Number of Huckel orbitals each symmetry:   12

 EWMO - Energy Weighted Maximum Overlap - is a Huckel type method,
        which normally is better than Extended Huckel Theory.
 Reference: Linderberg and Ohrn, Propagators in Quantum Chemistry (Wiley, 1973)

 Huckel EWMO eigenvalues for symmetry :  1
          -20.683950     -20.683770      -1.755280      -1.290790      -0.792953
           -0.782776      -0.689965      -0.564533      -0.533585      -0.389801
           -0.210128      -0.182268

 **********************************************************************
 *SIRIUS* a direct, restricted step, second order MCSCF program       *
 **********************************************************************

 
     Date and time (Linux)  : Thu May  7 10:42:49 2020
     Host name              : s74p30.deic.sdu.dk                      

 Title lines from ".mol" input file:
     per_inv.xyz                                                             
     Generated by Open Babel. Check overall charge below.                    

 Print level on unit LUPRI =   2 is   0
 Print level on unit LUW4  =   2 is   5

@    Restricted, closed shell Kohn-Sham DFT calculation.

@    Time-dependent Kohn-Sham DFT calculation (TD-DFT).
 Fock matrices are calculated directly and in parallel without use of integrals on disk.

 Initial molecular orbitals are obtained according to
 ".MOSTART EWMO  " input option

     Wave function specification
     ============================
@    Wave function type        --- KS-DFT ---
@    Number of closed shell electrons          18
@    Number of electrons in active shells       0
@    Total charge of the molecule               0

@    Spin multiplicity and 2 M_S                1         0
@    Total number of symmetries                 1 (point group: C1 )
@    Reference state symmetry                   1 (irrep name : A  )
 
     This is a DFT calculation of type: B3LYP
 Weighted mixed functional:
               HF exchange:    0.20000
                       VWN:    0.19000
                       LYP:    0.81000
                     Becke:    0.72000
                    Slater:    0.80000

     Orbital specifications
     ======================
@    Abelian symmetry species          All |    1
@                                          |  A  
                                       --- |  ---
@    Occupied SCF orbitals               9 |    9
@    Secondary orbitals                405 |  405
@    Total number of orbitals          414 |  414
@    Number of basis functions         414 |  414

     Optimization information
     ========================
@    Number of configurations                 1
@    Number of orbital rotations           3645
     ------------------------------------------
@    Total number of variables             3646

     Maximum number of Fock   iterations      0
     Maximum number of DIIS   iterations     60
     Maximum number of QC-SCF iterations     60
     Threshold for SCF convergence     1.00D-05
 
     This is a DFT calculation of type: B3LYP
 Weighted mixed functional:
               HF exchange:    0.20000
                       VWN:    0.19000
                       LYP:    0.81000
                     Becke:    0.72000
                    Slater:    0.80000

    INFORMATION: Switched to "new" integral transformation (from 1988 ;-) )
    because more than 255 basis functions.


 ***********************************************
 ***** DIIS acceleration of SCF iterations *****
 ***********************************************

 C1-DIIS algorithm; max error vectors =    8

 Iter      Total energy        Error norm    Delta(E)  DIIS dim.
 -----------------------------------------------------------------------------
   1  Screening settings (-IFTHRS, JTDIIS, DIFDEN, times)   -9    1    F  1.04D+01  1.04D+01
      K-S energy, electrons, error :    -14.272573283421  17.9999995056   -4.94D-07
@  1    -151.297757760        2.49075D+00   -1.51D+02    1
      Virial theorem: -V/T =      2.005242
@    MULPOP   O       0.39; O       0.39; H      -0.39; H      -0.39; 
   1  Level shift: doubly occupied orbital energies shifted by -2.00D-01
 -----------------------------------------------------------------------------
   2  Screening settings (-IFTHRS, JTDIIS, DIFDEN, times)   -9    2    F  1.05D+01  1.05D+01
      K-S energy, electrons, error :    -14.426111086713  17.9999995800   -4.20D-07
@  2    -151.541329011        6.94393D-01   -2.44D-01    2
      Virial theorem: -V/T =      2.000188
@    MULPOP   O      -0.48; O      -0.48; H       0.48; H       0.48; 
   2  Level shift: doubly occupied orbital energies shifted by -1.00D-01
 -----------------------------------------------------------------------------
   3  Screening settings (-IFTHRS, JTDIIS, DIFDEN, times)  -10    3    F  1.05D+01  1.05D+01
      K-S energy, electrons, error :    -14.322297788705  17.9999995551   -4.45D-07
@  3    -151.555389866        2.23387D-01   -1.41D-02    3
      Virial theorem: -V/T =      2.006489
@    MULPOP   O      -0.45; O      -0.45; H       0.45; H       0.45; 
   3  Level shift: doubly occupied orbital energies shifted by -5.00D-02
 -----------------------------------------------------------------------------
   4  Screening settings (-IFTHRS, JTDIIS, DIFDEN, times)  -10    4    F  1.05D+01  1.05D+01
      K-S energy, electrons, error :    -14.396058883351  17.9999995755   -4.25D-07
@  4    -151.556644382        1.44586D-01   -1.25D-03    4
      Virial theorem: -V/T =      2.001739
@    MULPOP   O      -0.49; O      -0.49; H       0.49; H       0.49; 
   4  Level shift: doubly occupied orbital energies shifted by -5.00D-02
 -----------------------------------------------------------------------------
   5  Screening settings (-IFTHRS, JTDIIS, DIFDEN, times)  -11    5    F  1.07D+01  1.07D+01
      K-S energy, electrons, error :    -14.364496188006  17.9999995614   -4.39D-07
@  5    -151.557509514        9.36807D-03   -8.65D-04    5
      Virial theorem: -V/T =      2.003703
@    MULPOP   O      -0.47; O      -0.47; H       0.47; H       0.47; 
   5  Level shift: doubly occupied orbital energies shifted by -1.25D-02
 -----------------------------------------------------------------------------
   6  Screening settings (-IFTHRS, JTDIIS, DIFDEN, times)  -12    6    F  1.06D+01  1.06D+01
      K-S energy, electrons, error :    -14.364769186512  17.9999995613   -4.39D-07
@  6    -151.557513449        2.54203D-03   -3.93D-06    6
      Virial theorem: -V/T =      2.003666
@    MULPOP   O      -0.47; O      -0.47; H       0.47; H       0.47; 
 -----------------------------------------------------------------------------
   7  Screening settings (-IFTHRS, JTDIIS, DIFDEN, times)  -12    7    F  1.06D+01  1.06D+01
      K-S energy, electrons, error :    -14.365041840993  17.9999995612   -4.39D-07
@  7    -151.557513741        2.30104D-04   -2.92D-07    7
      Virial theorem: -V/T =      2.003651
@    MULPOP   O      -0.47; O      -0.47; H       0.47; H       0.47; 
 -----------------------------------------------------------------------------
   8  Screening settings (-IFTHRS, JTDIIS, DIFDEN, times)  -13    8    F  1.06D+01  1.06D+01
      K-S energy, electrons, error :    -14.365047193368  17.9999995612   -4.39D-07
@  8    -151.557513743        8.60612D-05   -2.23D-09    8
      Virial theorem: -V/T =      2.003650
@    MULPOP   O      -0.47; O      -0.47; H       0.47; H       0.47; 
 -----------------------------------------------------------------------------
   9  Screening settings (-IFTHRS, JTDIIS, DIFDEN, times)  -13    9    F  1.06D+01  1.06D+01
      K-S energy, electrons, error :    -14.365037068146  17.9999995612   -4.39D-07
@  9    -151.557513743        6.28834D-05   -1.40D-10    8
      Virial theorem: -V/T =      2.003651
@    MULPOP   O      -0.47; O      -0.47; H       0.47; H       0.47; 
 -----------------------------------------------------------------------------
  10  Screening settings (-IFTHRS, JTDIIS, DIFDEN, times)  -13   10    F  1.05D+01  1.05D+01
      K-S energy, electrons, error :    -14.365036460413  17.9999995612   -4.39D-07
@ 10    -151.557513743        1.37567D-05   -1.60D-10    8
      Virial theorem: -V/T =      2.003651
@    MULPOP   O      -0.47; O      -0.47; H       0.47; H       0.47; 
 -----------------------------------------------------------------------------
  11  Screening settings (-IFTHRS, JTDIIS, DIFDEN, times)  -13   11    F  1.07D+01  1.07D+01
      K-S energy, electrons, error :    -14.365036717751  17.9999995612   -4.39D-07
@ 11    -151.557513743        3.82877D-06   -7.45D-12    8

@ *** DIIS converged in  11 iterations !
@     Converged SCF energy, gradient:   -151.557513743101    3.83D-06
    - total time used in SIRFCK :              0.00 seconds


 *** SCF orbital energy analysis ***

 Only the 20 lowest virtual orbital energies printed in each symmetry.

 Number of electrons :   18
 Orbital occupations :    9

 Sym       Kohn-Sham orbital energies

1 A     -19.19075031   -19.19068991    -1.11069647    -0.92448503    -0.55962411
         -0.48837210    -0.41940726    -0.33419240    -0.29421087    -0.03769361
         -0.01668942     0.01768359     0.05104531     0.05134430     0.07291104
          0.08010387     0.08744477     0.09921173     0.09994077     0.11801511
          0.12803595     0.17738949     0.18696655     0.18801803     0.20056447
          0.20138827     0.22711283     0.22939331     0.30895784

    E(LUMO) :    -0.03769361 au (symmetry 1)
  - E(HOMO) :    -0.29421087 au (symmetry 1)
  ------------------------------------------
    gap     :     0.25651726 au

 --- Writing SIRIFC interface file

 CPU and wall time for SCF :     121.847     122.084


                       .-----------------------------------.
                       | --- Final results from SIRIUS --- |
                       `-----------------------------------'


@    Spin multiplicity:           1
@    Spatial symmetry:            1 ( irrep  A   in C1  )
@    Total charge of molecule:    0

@    Final DFT energy:           -151.557513743101                 
@    Nuclear repulsion:            36.215269029217
@    Electronic energy:          -187.772782772318

@    Final gradient norm:           0.000003828767

 
     Date and time (Linux)  : Thu May  7 10:44:51 2020
     Host name              : s74p30.deic.sdu.dk                      

File label for MO orbitals:   7May20   FOCKDIIS

 (Only coefficients > 0.0100 are printed.)

 Molecular orbitals for symmetry species 1  (A  )
 ------------------------------------------------

    Orbital         1        2        3        4        5        6        7
   1 O   :1s    -0.7187   0.7271   0.0144   0.0121  -0.0005   0.0027  -0.0011
   2 O   :1s    -0.0627   0.0642  -0.5986  -0.6065   0.0197  -0.2608   0.1452
   3 O   :1s    -0.0134   0.0140  -0.0009  -0.0010  -0.0003  -0.0006   0.0006
   4 O   :1s     0.0367  -0.0403  -0.0050  -0.0094   0.0016  -0.0097   0.0048
   5 O   :1s     0.0452  -0.0394   0.0102  -0.0043   0.0037  -0.0153   0.0103
   6 O   :1s     0.0114   0.0073  -0.0113  -0.0495  -0.0191  -0.0471   0.0522
   7 O   :1s    -0.0003   0.0074  -0.0172  -0.0313  -0.0183   0.0043  -0.0033
   8 O   :2px   -0.0047   0.0052  -0.1194   0.0970   0.4517   0.0909  -0.4358
   9 O   :2py    0.0017  -0.0016   0.0204   0.0578   0.2484   0.0014   0.4837
  10 O   :2pz    0.0046  -0.0046   0.0667   0.1636   0.3544  -0.5793   0.1319
  15 O   :2py   -0.0036   0.0034   0.0001   0.0007  -0.0041   0.0001  -0.0146
  16 O   :2pz   -0.0104   0.0095   0.0009   0.0022  -0.0040   0.0167  -0.0067
  17 O   :2px    0.0011   0.0146   0.0159  -0.0081  -0.0291  -0.0002   0.0186
  18 O   :2py    0.0006   0.0028   0.0054   0.0001  -0.0116   0.0045  -0.0150
  19 O   :2pz    0.0014   0.0036   0.0079   0.0000  -0.0175   0.0253  -0.0093
  20 O   :2px    0.0009   0.0042   0.0158  -0.0155  -0.0237   0.0092   0.0011
  22 O   :2pz    0.0011  -0.0022   0.0060  -0.0053  -0.0137   0.0136  -0.0018
  38 O   :3d0    0.0022  -0.0028  -0.0009  -0.0103  -0.0168   0.0080   0.0032
  40 O   :3d2+   0.0001   0.0012  -0.0084   0.0021   0.0119   0.0008  -0.0051
  43 O   :3d0   -0.0021  -0.0026  -0.0056  -0.0114  -0.0119   0.0064   0.0004
 128 O   :1s    -0.7269  -0.7189   0.0144  -0.0121  -0.0005  -0.0027  -0.0011
 129 O   :1s    -0.0634  -0.0635  -0.5985   0.6065   0.0197   0.2607   0.1452
 130 O   :1s    -0.0135  -0.0139  -0.0009   0.0010  -0.0003   0.0006   0.0006
 131 O   :1s     0.0371   0.0399  -0.0050   0.0094   0.0016   0.0097   0.0048
 132 O   :1s     0.0457   0.0389   0.0102   0.0043   0.0037   0.0153   0.0103
 133 O   :1s     0.0113  -0.0074  -0.0113   0.0495  -0.0191   0.0471   0.0522
 134 O   :1s    -0.0004  -0.0074  -0.0172   0.0313  -0.0183  -0.0043  -0.0033
 135 O   :2px    0.0039   0.0043   0.1063   0.1170  -0.5184   0.0582   0.2872
 136 O   :2py    0.0045   0.0045   0.0742  -0.0871   0.2354   0.2382   0.5936
 137 O   :2pz   -0.0034  -0.0034  -0.0481   0.1351  -0.2591  -0.5327   0.0803
 142 O   :2py   -0.0072  -0.0066   0.0011  -0.0025  -0.0045  -0.0072  -0.0171
 143 O   :2pz    0.0084   0.0075  -0.0007   0.0016   0.0023   0.0152   0.0004
 144 O   :2px   -0.0012   0.0150  -0.0171  -0.0078   0.0320   0.0023  -0.0136
 145 O   :2py    0.0008  -0.0000   0.0036  -0.0022  -0.0092  -0.0135  -0.0217
 146 O   :2pz   -0.0011   0.0030  -0.0061  -0.0004   0.0134   0.0218   0.0021
 147 O   :2px   -0.0011   0.0040  -0.0166  -0.0158   0.0258   0.0116  -0.0026
 149 O   :2pz   -0.0008  -0.0019  -0.0048  -0.0049   0.0107   0.0102   0.0040
 163 O   :3d2-  -0.0011  -0.0013  -0.0012  -0.0042   0.0072  -0.0005  -0.0109
 164 O   :3d1-  -0.0022  -0.0022   0.0057  -0.0097   0.0103   0.0097   0.0025
 165 O   :3d0    0.0009   0.0015   0.0026   0.0046  -0.0103  -0.0032   0.0057
 167 O   :3d2+  -0.0003  -0.0015  -0.0064  -0.0040   0.0145   0.0016   0.0020
 169 O   :3d1-   0.0026   0.0008   0.0084  -0.0104   0.0084   0.0107   0.0029
 255 H   :1s     0.0020  -0.0024  -0.2854  -0.4343  -0.5081   0.3856  -0.1073
 257 H   :1s    -0.0074   0.0116   0.0708   0.0962   0.0828  -0.0519   0.0086
 258 H   :1s    -0.0030   0.0008   0.1392   0.1881   0.1642  -0.0967   0.0233
 259 H   :1s    -0.0005  -0.0002   0.0655   0.0885   0.0989  -0.0771   0.0352
 270 H   :2px   -0.0008   0.0016   0.0005   0.0029   0.0074   0.0057  -0.0120
 335 H   :1s     0.0020   0.0023  -0.2853   0.4343  -0.5081  -0.3856  -0.1073
 337 H   :1s    -0.0075  -0.0115   0.0708  -0.0962   0.0828   0.0519   0.0086
 338 H   :1s    -0.0030  -0.0008   0.1392  -0.1881   0.1642   0.0967   0.0234
 339 H   :1s    -0.0005   0.0002   0.0655  -0.0885   0.0989   0.0771   0.0352

    Orbital         8        9       10       11       12       13       14
   2 O   :1s     0.1329  -0.0876   0.2957  -0.1314   0.1056   0.0388   0.0116
   4 O   :1s     0.0056  -0.0039   0.0122   0.0009  -0.0106   0.0891   0.0469
   5 O   :1s     0.0041  -0.0078   0.0584  -0.0719  -0.0760  -0.3470  -0.0290
   6 O   :1s     0.0478  -0.0222   0.3736  -0.5970   1.0308  -3.7893  -1.5834
   7 O   :1s     0.0107  -0.0057   0.6839  -0.7027   1.9296 -10.2771  -6.0113
   8 O   :2px   -0.2603   0.0781   0.5670   0.0682   0.3253   0.1881   0.0270
   9 O   :2py   -0.3974  -0.7255  -0.0038   0.0639   0.0360   0.0257  -0.1356
  10 O   :2pz    0.5177   0.0549  -0.0614   0.1229   0.1228  -0.1178  -0.0746
  13 O   :2pz   -0.0060  -0.0005   0.0008  -0.0033  -0.0006  -0.0113  -0.0052
  14 O   :2px    0.0040  -0.0027  -0.0102   0.0068  -0.0287   0.0331   0.0041
  15 O   :2py    0.0097   0.0188  -0.0016   0.0044  -0.0044   0.0239   0.0119
  16 O   :2pz   -0.0148  -0.0012  -0.0039   0.0153  -0.0068   0.0845   0.0046
  17 O   :2px    0.0088   0.0021   0.0020   0.0809   0.3972  -0.1073   0.0292
  18 O   :2py    0.0114   0.0191  -0.0152   0.0616   0.0728   0.2286   0.1457
  19 O   :2pz   -0.0153   0.0017  -0.0486   0.1594   0.1159   0.8489   0.6310
  20 O   :2px   -0.0049   0.0157   0.1064   0.0346   1.4447  -0.3601  -0.2544
  21 O   :2py   -0.0131  -0.0381  -0.0465   0.1019   0.3455   0.4135   0.5021
  22 O   :2pz    0.0240   0.0091  -0.1243   0.2329   0.5102   2.0012   1.0601
  23 O   :2px   -0.0040   0.0040   0.1465   0.0961   1.1514  -1.1249  -0.7781
  24 O   :2py   -0.0064  -0.0196   0.0097  -0.0251   0.2851  -0.2569   0.8690
  25 O   :2pz    0.0115   0.0013  -0.0595   0.0032   0.4139   1.1705   0.8991
  37 O   :3d1-  -0.0002   0.0094   0.0009  -0.0072  -0.0002  -0.0335  -0.0195
  38 O   :3d0   -0.0083  -0.0004   0.0072  -0.0115   0.0020  -0.0582  -0.0330
  39 O   :3d1+  -0.0013   0.0037  -0.0096  -0.0059  -0.0081  -0.0224  -0.0107
  41 O   :3d2-  -0.0020   0.0079  -0.0006  -0.0163   0.0214  -0.0311  -0.0015
  42 O   :3d1-  -0.0040   0.0088   0.0096  -0.0326  -0.0212  -0.1624  -0.1359
  43 O   :3d0   -0.0117   0.0001   0.0209  -0.0357  -0.1042  -0.2524  -0.2338
  44 O   :3d1+  -0.0076   0.0048  -0.0023  -0.0478  -0.0026  -0.0739   0.0486
  45 O   :3d2+  -0.0005  -0.0040  -0.0138  -0.0127   0.1402  -0.0644  -0.0080
  46 O   :3d2-   0.0000   0.0037  -0.0005  -0.0275   0.0634  -0.1252   0.1110
  47 O   :3d1-  -0.0023   0.0032   0.0133  -0.0306  -0.0464  -0.2318  -0.1713
  48 O   :3d0   -0.0056  -0.0025   0.0321  -0.0226  -0.2456  -0.3317  -0.1447
  49 O   :3d1+  -0.0036   0.0013   0.0005  -0.0661  -0.0064  -0.0777  -0.1328
  50 O   :3d2+  -0.0014  -0.0020  -0.0154  -0.0403   0.2787  -0.1735  -0.1157
  67 O   :4f1-   0.0014  -0.0026  -0.0027   0.0059  -0.0000   0.0395   0.0427
  68 O   :4f0    0.0044  -0.0008  -0.0026   0.0046  -0.0058   0.0520   0.0294
  69 O   :4f1+   0.0001   0.0004   0.0004   0.0095  -0.0077   0.0204   0.0145
  70 O   :4f2+  -0.0019   0.0027   0.0014  -0.0002   0.0074  -0.0170   0.0142
  71 O   :4f3+  -0.0002  -0.0001  -0.0001  -0.0026   0.0195  -0.0182   0.0021
  72 O   :4f3-   0.0003   0.0016   0.0012   0.0004   0.0139  -0.0164   0.0118
  73 O   :4f2-  -0.0003  -0.0001  -0.0016   0.0107   0.0069   0.0060  -0.0163
  74 O   :4f1-   0.0005  -0.0007  -0.0033   0.0082   0.0100   0.0478   0.0423
  75 O   :4f0    0.0017  -0.0009  -0.0034   0.0116   0.0080   0.0402   0.0316
  76 O   :4f1+  -0.0003   0.0000  -0.0004   0.0143  -0.0276   0.0265   0.0240
  77 O   :4f2+  -0.0020   0.0005   0.0024  -0.0108  -0.0029   0.0014   0.0203
  78 O   :4f3+  -0.0001  -0.0008   0.0007  -0.0144   0.0399  -0.0369   0.0009
 100 O   :5g1-  -0.0003   0.0002   0.0007  -0.0007  -0.0015  -0.0110  -0.0145
 101 O   :5g0   -0.0001   0.0001   0.0002  -0.0003   0.0021  -0.0116  -0.0112
 102 O   :5g1+   0.0007  -0.0003  -0.0000   0.0000  -0.0024  -0.0021  -0.0122
 129 O   :1s     0.1329   0.0876  -0.2957  -0.1314  -0.1056  -0.0388   0.0116
 131 O   :1s     0.0056   0.0039  -0.0122   0.0009   0.0106  -0.0892   0.0469
 132 O   :1s     0.0041   0.0078  -0.0584  -0.0719   0.0760   0.3470  -0.0288
 133 O   :1s     0.0478   0.0222  -0.3736  -0.5970  -1.0309   3.7900  -1.5817
 134 O   :1s     0.0107   0.0057  -0.6838  -0.7027  -1.9297  10.2798  -6.0066
 135 O   :2px    0.3280  -0.1111   0.5424  -0.0887   0.3293   0.1820   0.0132
 136 O   :2py   -0.0932   0.6461   0.1741   0.0849   0.0070   0.0701  -0.1556
 137 O   :2pz   -0.6143   0.3250  -0.0264  -0.0936   0.1171  -0.1090   0.0172
 141 O   :2px   -0.0056   0.0023  -0.0104  -0.0085  -0.0292   0.0424  -0.0073
 142 O   :2py    0.0021  -0.0170   0.0002   0.0079  -0.0011  -0.0441   0.0113
 143 O   :2pz    0.0171  -0.0083  -0.0036  -0.0129  -0.0062   0.0711   0.0000
 144 O   :2px   -0.0107   0.0070  -0.0045  -0.1023   0.4078  -0.0001  -0.0986
 145 O   :2py    0.0021  -0.0171   0.0322   0.0931  -0.0044  -0.5479   0.3569
 146 O   :2pz    0.0179  -0.0054  -0.0392  -0.1290   0.1007   0.6962  -0.5317
 147 O   :2px    0.0069   0.0056   0.0840  -0.0719   1.5091  -0.1365   0.0598
 148 O   :2py   -0.0015   0.0346   0.1154   0.1685  -0.1208  -1.2079   0.9078
 149 O   :2pz   -0.0268   0.0234  -0.0924  -0.1796   0.4183   1.6823  -0.7816
 150 O   :2px    0.0049  -0.0012   0.1407  -0.0862   1.2055  -1.0916   0.4767
 151 O   :2py   -0.0004   0.0179   0.0517  -0.0462  -0.1077  -0.5011   1.3115
 152 O   :2pz   -0.0129   0.0087  -0.0513  -0.0172   0.3365   1.1227  -0.4691
 163 O   :3d2-   0.0017   0.0056  -0.0018   0.0053  -0.0045  -0.0181   0.0124
 164 O   :3d1-   0.0064   0.0046   0.0039   0.0101   0.0013  -0.0545   0.0295
 165 O   :3d0   -0.0060   0.0053  -0.0055  -0.0055  -0.0015   0.0272  -0.0158
 166 O   :3d1+  -0.0012  -0.0043   0.0077  -0.0071   0.0062   0.0306  -0.0149
 167 O   :3d2+  -0.0036   0.0042   0.0108   0.0037   0.0056  -0.0093   0.0112
 168 O   :3d2-   0.0049   0.0111   0.0074   0.0291  -0.0583  -0.0505   0.0077
 169 O   :3d1-   0.0085   0.0049   0.0151   0.0395  -0.0285  -0.2710   0.2466
 170 O   :3d0   -0.0073   0.0045  -0.0122  -0.0105   0.0869   0.0993  -0.0980
 171 O   :3d1+  -0.0080  -0.0030  -0.0000  -0.0493   0.0024   0.1219  -0.0066
 172 O   :3d2+   0.0002   0.0015   0.0171  -0.0103  -0.1402  -0.0045   0.0708
 173 O   :3d2-   0.0011   0.0047   0.0102   0.0302  -0.1017  -0.0860  -0.0686
 174 O   :3d1-   0.0046   0.0002   0.0232   0.0366  -0.0794  -0.4133   0.1953
 175 O   :3d0   -0.0032   0.0037  -0.0192   0.0007   0.2012   0.1046  -0.0126
 176 O   :3d1+  -0.0044  -0.0001  -0.0039  -0.0643   0.0174   0.1309  -0.2243
 177 O   :3d2+  -0.0002   0.0003   0.0204  -0.0425  -0.2945   0.0968   0.0140
 193 O   :4f2-   0.0004   0.0012   0.0010   0.0090  -0.0053  -0.0260   0.0095
 194 O   :4f1-   0.0030   0.0008   0.0026   0.0050  -0.0016  -0.0448   0.0438
 195 O   :4f0   -0.0021   0.0010   0.0003   0.0009  -0.0064   0.0076   0.0166
 196 O   :4f1+  -0.0010   0.0004  -0.0001  -0.0066  -0.0110   0.0237  -0.0264
 197 O   :4f2+   0.0027   0.0024   0.0024   0.0009   0.0087  -0.0380   0.0110
 198 O   :4f3+   0.0014   0.0019   0.0010   0.0042   0.0190  -0.0244   0.0047
 199 O   :4f3-  -0.0006  -0.0018  -0.0011   0.0087   0.0201  -0.0115   0.0048
 200 O   :4f2-   0.0007   0.0002   0.0024   0.0156  -0.0107  -0.0123   0.0086
 201 O   :4f1-   0.0006   0.0010   0.0033   0.0062  -0.0162  -0.0464   0.0413
 202 O   :4f0   -0.0011  -0.0001  -0.0000  -0.0044  -0.0055  -0.0099   0.0138
 203 O   :4f1+   0.0002  -0.0000  -0.0001  -0.0080  -0.0292   0.0362  -0.0412
 204 O   :4f2+   0.0022   0.0000   0.0029   0.0101  -0.0050  -0.0261   0.0178
 205 O   :4f3+   0.0003   0.0008   0.0027   0.0174   0.0327  -0.0418  -0.0130
 226 O   :5g2-   0.0001  -0.0003   0.0000   0.0017  -0.0004  -0.0063   0.0110
 229 O   :5g1+   0.0008   0.0000  -0.0001   0.0015   0.0015   0.0019  -0.0124
 230 O   :5g2+   0.0001   0.0003   0.0004   0.0007   0.0034  -0.0138   0.0131
 255 H   :1s    -0.2623   0.1745  -0.1376   0.0582  -0.0158  -0.0659  -0.0449
 256 H   :1s     0.0016  -0.0009   0.0016  -0.0076  -0.0025  -0.0287  -0.0022
 257 H   :1s     0.0320  -0.0189  -0.0481   0.1751   0.0878   0.8992   0.6705
 258 H   :1s     0.0741  -0.0336  -0.2308   0.6419   0.6113   3.3804   1.4390
 259 H   :1s     0.0491  -0.0145  -0.4387   0.5849   1.2829   5.9763   5.8131
 260 H   :1s     0.0005   0.0012  -0.3440   0.5641   2.2578   1.1154   0.5366
 266 H   :2pz   -0.0001   0.0019   0.0014  -0.0051  -0.0046   0.0009   0.0108
 267 H   :2px   -0.0023  -0.0003   0.0095  -0.0001  -0.0010   0.1037   0.0697
 268 H   :2py   -0.0082  -0.0108  -0.0023   0.0165   0.0051   0.1067   0.0787
 269 H   :2pz    0.0034   0.0037  -0.0093   0.0495   0.0197   0.2647   0.1343
 270 H   :2px    0.0001  -0.0027   0.0176   0.0017  -0.0002   0.3728   0.3013
 271 H   :2py   -0.0104  -0.0177  -0.0074   0.0481   0.0148   0.4089   0.1583
 272 H   :2pz    0.0106   0.0028  -0.0269   0.1391   0.0766   0.7870   0.3282
 273 H   :2px    0.0014  -0.0012   0.0407  -0.0375  -0.0426   0.6033   1.0386
 274 H   :2py   -0.0019  -0.0081  -0.0140   0.0498   0.0685   0.8114   0.2671
 275 H   :2pz    0.0088   0.0003  -0.0278   0.0928   0.2074   1.2585   1.1647
 282 H   :3d1-  -0.0009  -0.0009  -0.0007   0.0033   0.0001   0.0166   0.0119
 283 H   :3d0    0.0002   0.0008  -0.0011   0.0047   0.0003   0.0240   0.0130
 284 H   :3d1+  -0.0003   0.0002   0.0001   0.0006  -0.0017   0.0179   0.0066
 286 H   :3d2-  -0.0003   0.0000  -0.0003   0.0021  -0.0048   0.0412   0.0039
 287 H   :3d1-  -0.0018  -0.0011  -0.0018   0.0124   0.0035   0.0705   0.0159
 288 H   :3d0   -0.0000   0.0016  -0.0025   0.0193   0.0146   0.0474  -0.0217
 289 H   :3d1+  -0.0006  -0.0000   0.0004  -0.0027  -0.0096   0.0650   0.0490
 290 H   :3d2+   0.0012   0.0001  -0.0002  -0.0032  -0.0077  -0.0035   0.0262
 291 H   :3d2-   0.0004   0.0012  -0.0013   0.0109  -0.0158   0.0686  -0.0336
 292 H   :3d1-  -0.0011  -0.0004  -0.0010   0.0136  -0.0044   0.0962  -0.0238
 293 H   :3d0   -0.0004   0.0003   0.0008   0.0183   0.0214  -0.0621  -0.0905
 294 H   :3d1+  -0.0012  -0.0001   0.0002  -0.0080  -0.0187   0.0462   0.1328
 295 H   :3d2+   0.0011  -0.0001   0.0014  -0.0070  -0.0278   0.0225   0.1388
 305 H   :4f1-  -0.0003   0.0002  -0.0002   0.0022   0.0007   0.0111   0.0030
 307 H   :4f1+  -0.0002   0.0000  -0.0004  -0.0003  -0.0027   0.0105   0.0030
 311 H   :4f2-   0.0000   0.0005  -0.0002   0.0016  -0.0041   0.0131  -0.0168
 312 H   :4f1-  -0.0002   0.0004   0.0010  -0.0004   0.0008   0.0000  -0.0101
 313 H   :4f0   -0.0004  -0.0003   0.0008   0.0003   0.0049  -0.0222  -0.0347
 314 H   :4f1+  -0.0006  -0.0001   0.0012  -0.0046  -0.0022  -0.0189   0.0028
 315 H   :4f2+  -0.0001  -0.0003   0.0010  -0.0016  -0.0056  -0.0080   0.0324
 316 H   :4f3+   0.0000  -0.0001  -0.0001  -0.0010  -0.0030   0.0027   0.0195
 335 H   :1s    -0.2623  -0.1745   0.1376   0.0582   0.0158   0.0659  -0.0448
 336 H   :1s     0.0016   0.0009  -0.0016  -0.0076   0.0025   0.0287  -0.0021
 337 H   :1s     0.0320   0.0189   0.0481   0.1751  -0.0878  -0.8995   0.6701
 338 H   :1s     0.0741   0.0336   0.2308   0.6418  -0.6113  -3.3810   1.4375
 339 H   :1s     0.0491   0.0145   0.4387   0.5848  -1.2829  -5.9789   5.8103
 340 H   :1s     0.0005  -0.0012   0.3440   0.5641  -2.2578  -1.1157   0.5361
 347 H   :2px    0.0042  -0.0029   0.0081  -0.0068   0.0014   0.1415  -0.0946
 348 H   :2py   -0.0055   0.0081   0.0080   0.0332  -0.0122  -0.1666   0.1019
 349 H   :2pz   -0.0061   0.0075  -0.0073  -0.0397   0.0163   0.2109  -0.0986
 350 H   :2px    0.0021  -0.0071   0.0136  -0.0213   0.0076   0.5067  -0.3484
 351 H   :2py   -0.0053   0.0140   0.0212   0.0942  -0.0417  -0.5601   0.1844
 352 H   :2pz   -0.0137   0.0091  -0.0213  -0.1111   0.0654   0.5963  -0.2603
 353 H   :2px   -0.0013  -0.0033   0.0342   0.0184  -0.0125   0.8584  -1.1303
 354 H   :2py    0.0012   0.0068   0.0335   0.0887  -0.1493  -1.0342   0.4002
 355 H   :2pz   -0.0089   0.0032  -0.0184  -0.0655   0.1644   0.8955  -1.0328
 361 H   :3d2-   0.0006  -0.0004  -0.0000  -0.0010  -0.0013   0.0149  -0.0093
 362 H   :3d1-   0.0004  -0.0001  -0.0012  -0.0047   0.0006   0.0219  -0.0144
 363 H   :3d0    0.0007  -0.0011   0.0005   0.0018  -0.0000  -0.0105   0.0038
 364 H   :3d1+  -0.0003  -0.0002   0.0002   0.0017   0.0012  -0.0194   0.0077
 366 H   :3d2-   0.0013  -0.0001  -0.0004  -0.0047  -0.0024   0.0684  -0.0089
 367 H   :3d1-   0.0008   0.0002  -0.0029  -0.0199   0.0102   0.0671   0.0041
 368 H   :3d0    0.0009  -0.0019   0.0009   0.0079  -0.0097   0.0004  -0.0258
 369 H   :3d1+  -0.0006   0.0001   0.0002   0.0008   0.0061  -0.0631   0.0481
 370 H   :3d2+   0.0013  -0.0002  -0.0006  -0.0082   0.0127   0.0013   0.0274
 371 H   :3d2-   0.0008   0.0009  -0.0017  -0.0118  -0.0054   0.0710   0.0543
 372 H   :3d1-   0.0003   0.0001   0.0000  -0.0214   0.0029   0.0356   0.0607
 373 H   :3d0    0.0001  -0.0004  -0.0011   0.0061  -0.0217   0.1075  -0.0613
 374 H   :3d1+  -0.0013   0.0006  -0.0007  -0.0074   0.0146  -0.0373   0.1381
 375 H   :3d2+   0.0013  -0.0006  -0.0007  -0.0080   0.0336  -0.0345   0.1316
 384 H   :4f2-  -0.0002  -0.0001   0.0004   0.0008   0.0019  -0.0140   0.0019
 391 H   :4f2-  -0.0003  -0.0005  -0.0004  -0.0011   0.0030  -0.0022  -0.0186
 392 H   :4f1-  -0.0003   0.0001  -0.0012   0.0004  -0.0013   0.0146  -0.0191
 393 H   :4f0    0.0001  -0.0004  -0.0003  -0.0003   0.0037  -0.0141   0.0199
 394 H   :4f1+   0.0006  -0.0004   0.0015   0.0048   0.0004  -0.0264  -0.0099
 395 H   :4f2+   0.0000  -0.0002   0.0001   0.0016  -0.0067   0.0005  -0.0320
 396 H   :4f3+  -0.0002  -0.0002   0.0003   0.0009  -0.0042   0.0011  -0.0283

    Orbital        15       16       17       18       19
   2 O   :1s    -0.1319   0.0049   0.0549  -0.0034  -0.0596
   3 O   :1s    -0.0037  -0.0110   0.0035   0.0019   0.0025
   4 O   :1s    -0.0755   0.0285  -0.0274  -0.0286  -0.0538
   5 O   :1s     0.6637   0.5398   0.0700   0.0447   0.2060
   6 O   :1s     3.5678  -1.4770   1.5152   1.9694   2.7615
   7 O   :1s     5.6809  -1.8805   3.3587   5.2005   1.9750
   8 O   :2px    0.0532   0.3416   0.0479  -0.0964   0.0695
   9 O   :2py   -0.0267   0.1141  -0.0089   0.1225   0.0737
  10 O   :2pz    0.1633   0.1756   0.0117  -0.0307  -0.0656
  13 O   :2pz    0.0160   0.0033   0.0007   0.0054   0.0097
  14 O   :2px   -0.0481   0.0458   0.0277  -0.0384  -0.0116
  15 O   :2py   -0.0527  -0.0154   0.0094  -0.0235  -0.0047
  16 O   :2pz   -0.1556  -0.0514   0.0153  -0.0373  -0.0514
  17 O   :2px   -0.5185  -1.0715   0.1514   0.3591  -0.1747
  18 O   :2py   -0.4496  -0.2250  -0.0720   0.0793  -0.1669
  19 O   :2pz   -0.9963  -0.5273  -0.0889  -0.0733  -0.6269
  20 O   :2px   -0.5495  -3.3438  -0.9094   1.6439  -0.6485
  21 O   :2py   -0.7574  -0.6721  -0.2394   0.3043  -0.2908
  22 O   :2pz   -1.2694  -1.3844  -1.3203   0.2233  -1.2748
  23 O   :2px   -0.9150  -2.3379  -1.8419   1.4472  -1.5849
  24 O   :2py    0.3008  -0.9426  -0.0707  -2.0555  -0.5057
  25 O   :2pz   -0.8093  -1.1948  -2.5024  -0.0117   1.4243
  36 O   :3d2-   0.0204   0.0034   0.0017   0.0005   0.0033
  37 O   :3d1-   0.0536   0.0155  -0.0012   0.0146   0.0180
  38 O   :3d0    0.0780   0.0281  -0.0107   0.0121   0.0349
  39 O   :3d1+   0.0469   0.0244   0.0013   0.0077   0.0135
  40 O   :3d2+  -0.0100  -0.0080   0.0222   0.0038  -0.0038
  41 O   :3d2-   0.1272  -0.0687  -0.0378   0.0381   0.0206
  42 O   :3d1-   0.2349   0.0455   0.0737  -0.0725   0.0373
  43 O   :3d0    0.1753   0.3487   0.1590  -0.0300   0.2382
  44 O   :3d1+   0.2696   0.0359   0.0208   0.0912   0.1931
  45 O   :3d2+   0.0110  -0.3698  -0.0954   0.1904   0.0380
  46 O   :3d2-   0.2192  -0.1848   0.0890  -0.1632   0.0322
  47 O   :3d1-   0.1524   0.0731   0.2517  -0.0402   0.2040
  48 O   :3d0    0.1363   0.5780   0.5801  -0.2589   0.4032
  49 O   :3d1+   0.2915   0.0473  -0.1277   0.1299   0.3717
  50 O   :3d2+   0.1124  -0.6559  -0.5111   0.3783  -0.2739
  65 O   :4f3-  -0.0067  -0.0253  -0.0025   0.0205  -0.0037
  66 O   :4f2-  -0.0413  -0.0134   0.0012   0.0071  -0.0088
  67 O   :4f1-  -0.0404   0.0020  -0.0180   0.0062  -0.0054
  68 O   :4f0   -0.0031  -0.0001  -0.0347  -0.0299  -0.0405
  69 O   :4f1+  -0.0498   0.0143   0.0034  -0.0375  -0.0307
  70 O   :4f2+   0.0005  -0.0222   0.0240  -0.0055  -0.0035
  71 O   :4f3+   0.0088  -0.0516  -0.0005   0.0209   0.0037
  72 O   :4f3-  -0.0095  -0.0382   0.0366   0.0072  -0.0074
  73 O   :4f2-  -0.0972  -0.0051   0.0534   0.0354  -0.0314
  74 O   :4f1-  -0.0567  -0.0073  -0.0354   0.0154  -0.0154
  75 O   :4f0   -0.0138  -0.0258  -0.0536  -0.0457  -0.0612
  76 O   :4f1+  -0.0525   0.0431   0.0679  -0.0884  -0.0378
  77 O   :4f2+   0.0361  -0.0073   0.0264   0.0076   0.0411
  78 O   :4f3+   0.0524  -0.1037  -0.0781   0.0283  -0.0234
  99 O   :5g2-   0.0146   0.0060   0.0008  -0.0030   0.0009
 101 O   :5g0   -0.0093  -0.0002   0.0041   0.0139   0.0075
 105 O   :5g4+   0.0004  -0.0116  -0.0071   0.0074  -0.0056
 129 O   :1s    -0.1319  -0.0049   0.0549   0.0034  -0.0596
 130 O   :1s    -0.0037   0.0110   0.0035  -0.0019   0.0025
 131 O   :1s    -0.0755  -0.0285  -0.0274   0.0286  -0.0538
 132 O   :1s     0.6637  -0.5398   0.0700  -0.0447   0.2060
 133 O   :1s     3.5677   1.4771   1.5152  -1.9693   2.7615
 134 O   :1s     5.6807   1.8808   3.3587  -5.2004   1.9750
 135 O   :2px   -0.0527   0.3681  -0.0445  -0.0625  -0.0828
 136 O   :2py    0.0232  -0.0780  -0.0161  -0.1228   0.0231
 137 O   :2pz   -0.1640   0.1378  -0.0166  -0.0790   0.0847
 138 O   :2px   -0.0103  -0.0050   0.0069   0.0039  -0.0012
 139 O   :2py    0.0109  -0.0027   0.0027   0.0008   0.0001
 140 O   :2pz   -0.0123   0.0028  -0.0001   0.0059  -0.0103
 141 O   :2px    0.0681   0.0375  -0.0299  -0.0451   0.0150
 142 O   :2py   -0.0924   0.0448   0.0068   0.0248  -0.0203
 143 O   :2pz    0.1271  -0.0395  -0.0121  -0.0277   0.0465
 144 O   :2px    0.6683  -1.1187  -0.1226   0.3631   0.2441
 145 O   :2py   -0.6362   0.1172  -0.1367   0.0503  -0.3365
 146 O   :2pz    0.7824  -0.4598   0.0478  -0.0790   0.5277
 147 O   :2px    0.7924  -3.4698   1.0070   1.6757   0.7665
 148 O   :2py   -1.0039   0.2418  -0.4677   0.0746  -0.5645
 149 O   :2pz    0.9225  -1.2043   1.1811   0.1781   1.1063
 150 O   :2px    0.8452  -2.5609   1.9227   0.8583   1.5865
 151 O   :2py    0.2052   0.6746  -0.5144   2.2127   0.4934
 152 O   :2pz    0.9090  -0.8761   2.3872   0.8290  -1.4267
 163 O   :3d2-  -0.0474   0.0181   0.0095   0.0037  -0.0128
 164 O   :3d1-  -0.0728   0.0199   0.0003   0.0168  -0.0295
 165 O   :3d0    0.0338  -0.0158  -0.0103  -0.0009   0.0182
 166 O   :3d1+   0.0519  -0.0253   0.0026  -0.0115   0.0173
 167 O   :3d2+  -0.0175   0.0094   0.0203   0.0017  -0.0093
 168 O   :3d2-  -0.2278   0.1551  -0.0393  -0.0419  -0.0779
 169 O   :3d1-  -0.2277   0.1041  -0.1053  -0.0220  -0.1400
 170 O   :3d0    0.0145  -0.2964   0.0954  -0.0035   0.1762
 171 O   :3d1+   0.2659  -0.0406   0.0472  -0.0779   0.1994
 172 O   :3d2+   0.0144   0.3769  -0.1331  -0.2095   0.0285
 173 O   :3d2-  -0.2459   0.2172  -0.3288  -0.2815  -0.3289
 174 O   :3d1-  -0.1883   0.1500  -0.3981  -0.1142  -0.2157
 175 O   :3d0    0.0199  -0.4991   0.3534   0.2085   0.2577
 176 O   :3d1+   0.2470  -0.0739  -0.1163  -0.1980   0.3604
 177 O   :3d2+   0.1734   0.6941  -0.5296  -0.2835  -0.2596
 192 O   :4f3-  -0.0199  -0.0082   0.0106   0.0033  -0.0083
 193 O   :4f2-  -0.0579   0.0161  -0.0133   0.0011  -0.0233
 194 O   :4f1-  -0.0171   0.0146  -0.0233   0.0153  -0.0300
 195 O   :4f0   -0.0256   0.0061   0.0130  -0.0252   0.0222
 196 O   :4f1+   0.0265   0.0217  -0.0007  -0.0407   0.0261
 197 O   :4f2+   0.0031  -0.0222  -0.0330  -0.0051  -0.0025
 198 O   :4f3+  -0.0234  -0.0513  -0.0056   0.0268  -0.0064
 199 O   :4f3-  -0.0514  -0.0457   0.1072   0.0081   0.0173
 200 O   :4f2-  -0.0971   0.0263   0.0306   0.0149  -0.0709
 201 O   :4f1-  -0.0241   0.0367  -0.0538   0.0015  -0.0353
 202 O   :4f0   -0.0255  -0.0031   0.0058  -0.0526   0.0368
 203 O   :4f1+   0.0016   0.0465  -0.0277  -0.0930   0.0114
 204 O   :4f2+  -0.0197  -0.0035  -0.0458   0.0095  -0.0235
 205 O   :4f3+  -0.0777  -0.0926   0.0387   0.0224  -0.0089
 227 O   :5g1-   0.0055   0.0050  -0.0055   0.0109  -0.0090
 232 O   :5g4+  -0.0034   0.0142   0.0002  -0.0101   0.0026
 255 H   :1s     0.1070   0.0691  -0.0441  -0.0011   0.0307
 256 H   :1s     0.0685   0.0323  -0.0169   0.0116   0.0189
 257 H   :1s    -1.1027  -0.4524  -0.2795  -0.1884  -0.6009
 258 H   :1s    -3.7559  -1.9894  -0.9622   0.1314  -3.0092
 259 H   :1s    -4.0104  -4.5846  -3.4180  -0.4841  -0.6553
 260 H   :1s    -1.1150  -3.0164  -0.1377   0.8192  -0.5891
 266 H   :2pz    0.0112   0.0054  -0.0078  -0.0025   0.0075
 267 H   :2px   -0.0023   0.0086  -0.0785  -0.0039  -0.0207
 268 H   :2py   -0.1091  -0.0795  -0.0046  -0.0750  -0.1254
 269 H   :2pz   -0.4414  -0.1681  -0.0118  -0.0356  -0.1912
 270 H   :2px    0.0261  -0.0106  -0.0780   0.0402   0.0063
 271 H   :2py   -0.2993  -0.3172  -0.0316  -0.2319  -0.4004
 272 H   :2pz   -1.3718  -0.6115   0.0817  -0.0444  -0.5786
 273 H   :2px    0.2628  -0.0523   0.4608   0.2295   0.3509
 274 H   :2py   -0.6928  -0.6328  -0.2868   0.1583  -0.2354
 275 H   :2pz   -1.7723  -1.5862  -0.2923  -0.2237  -0.4451
 282 H   :3d1-  -0.0251  -0.0098   0.0009  -0.0088  -0.0128
 283 H   :3d0   -0.0408  -0.0124   0.0013  -0.0059  -0.0131
 286 H   :3d2-  -0.0083   0.0054   0.0004   0.0122  -0.0122
 287 H   :3d1-  -0.0866  -0.0677   0.0173  -0.0476  -0.0830
 288 H   :3d0   -0.2057  -0.0805   0.0318  -0.0027  -0.0377
 289 H   :3d1+   0.0140   0.0111  -0.0117  -0.0057  -0.0030
 290 H   :3d2+   0.0131   0.0336   0.0103   0.0252   0.0377
 291 H   :3d2-  -0.0752   0.0335  -0.0040   0.0951  -0.0127
 292 H   :3d1-  -0.1202  -0.0945   0.0235  -0.0360  -0.0600
 293 H   :3d0   -0.2666  -0.1235  -0.0209  -0.0895   0.0046
 294 H   :3d1+   0.0938   0.0111   0.0685  -0.0387   0.0047
 295 H   :3d2+   0.0173   0.0587   0.2157   0.0643   0.1062
 305 H   :4f1-  -0.0221  -0.0120   0.0040  -0.0047  -0.0078
 306 H   :4f0   -0.0244  -0.0106   0.0023  -0.0040  -0.0018
 310 H   :4f3-  -0.0081   0.0056   0.0008   0.0105   0.0080
 311 H   :4f2-  -0.0139   0.0102  -0.0032   0.0291  -0.0090
 312 H   :4f1-  -0.0163  -0.0150   0.0034  -0.0043   0.0060
 313 H   :4f0   -0.0316  -0.0199  -0.0152  -0.0223   0.0240
 314 H   :4f1+   0.0324  -0.0031  -0.0161  -0.0312  -0.0013
 315 H   :4f2+   0.0110   0.0133   0.0313   0.0065   0.0129
 316 H   :4f3+   0.0038   0.0016   0.0234  -0.0074   0.0041
 335 H   :1s     0.1070  -0.0691  -0.0441   0.0011   0.0307
 336 H   :1s     0.0685  -0.0323  -0.0169  -0.0116   0.0189
 337 H   :1s    -1.1027   0.4524  -0.2795   0.1884  -0.6009
 338 H   :1s    -3.7558   1.9892  -0.9623  -0.1315  -3.0092
 339 H   :1s    -4.0103   4.5843  -3.4181   0.4841  -0.6553
 340 H   :1s    -1.1150   3.0164  -0.1378  -0.8192  -0.5891
 347 H   :2px    0.0534  -0.0211   0.0775  -0.0251   0.0625
 348 H   :2py   -0.2610   0.1357   0.0119   0.0790  -0.1775
 349 H   :2pz    0.3685  -0.1257   0.0132  -0.0053   0.1315
 350 H   :2px    0.1234  -0.1244   0.0793  -0.0241   0.1281
 351 H   :2py   -0.7843   0.5074   0.0226   0.2335  -0.5737
 352 H   :2pz    1.1584  -0.4491  -0.0834   0.0473   0.3867
 353 H   :2px    0.0184  -0.2970  -0.3543   0.2510  -0.2540
 354 H   :2py   -1.3456   1.1405  -0.4845   0.0022  -0.4670
 355 H   :2pz    1.3708  -1.2368   0.1404  -0.2544   0.3068
 362 H   :3d1-   0.0382  -0.0144  -0.0016  -0.0087   0.0163
 363 H   :3d0   -0.0184   0.0038   0.0003  -0.0002  -0.0028
 364 H   :3d1+  -0.0156   0.0001  -0.0064   0.0027  -0.0044
 365 H   :3d2+   0.0164  -0.0062  -0.0060  -0.0027   0.0053
 366 H   :3d2-   0.0273  -0.0205   0.0052  -0.0114   0.0420
 367 H   :3d1-   0.1826  -0.0856  -0.0369  -0.0232   0.0686
 368 H   :3d0   -0.1105   0.0262   0.0125  -0.0224   0.0156
 369 H   :3d1+  -0.0189   0.0087  -0.0027   0.0165  -0.0145
 370 H   :3d2+   0.0602  -0.0620  -0.0026  -0.0405   0.0544
 371 H   :3d2-   0.0614  -0.0156   0.0812   0.0226   0.0682
 372 H   :3d1-   0.2681  -0.1177  -0.0565  -0.0356   0.0075
 373 H   :3d0   -0.1301   0.0480  -0.0502   0.0629   0.0277
 374 H   :3d1+   0.0638   0.0243   0.0979   0.0735   0.0112
 375 H   :3d2+   0.0608  -0.1090   0.1742  -0.1134   0.0973
 384 H   :4f2-  -0.0110   0.0027   0.0009   0.0052  -0.0029
 385 H   :4f1-  -0.0244   0.0108   0.0044   0.0027  -0.0035
 388 H   :4f2+  -0.0184   0.0117   0.0017   0.0034  -0.0057
 390 H   :4f3-  -0.0023  -0.0117  -0.0063  -0.0204   0.0024
 391 H   :4f2-  -0.0026   0.0027  -0.0144   0.0025  -0.0047
 392 H   :4f1-  -0.0330   0.0134   0.0070   0.0063   0.0239
 393 H   :4f0    0.0054  -0.0047   0.0211  -0.0164  -0.0074
 394 H   :4f1+  -0.0294  -0.0100   0.0085  -0.0413  -0.0087
 395 H   :4f2+  -0.0268   0.0213  -0.0233   0.0104   0.0056
 396 H   :4f3+  -0.0024   0.0066  -0.0262  -0.0012  -0.0136

  Total CPU  time used in SIRIUS :  2 minutes  6 seconds
  Total wall time used in SIRIUS :  2 minutes  6 seconds

 
     Date and time (Linux)  : Thu May  7 10:44:52 2020
     Host name              : s74p30.deic.sdu.dk                      


                     .---------------------------------------.
                     | End of Wave Function Section (SIRIUS) |
                     `---------------------------------------'



                 .------------------------------------------------.
                 | Starting in Dynamic Property Section (RESPONS) |
                 `------------------------------------------------'


 ------------------------------------------------------------------------------
  RESPONSE  -  an MCSCF, MC-srDFT, DFT, and SOPPA response property program
 ------------------------------------------------------------------------------


 -------- OUTPUT FROM RESPONSE INPUT PROCESSING --------




 Quadratic Response single residue calculation
 ---------------------------------------------

 That is, calculation of second order moments.

 Two-photon transition processes computed (.TWO-PHOTON).
 Both photon frequencies are half the excitation energy.

 Spin of operator A , ISPINA=    0
 Spin of operator B , ISPINB=    0
 Spin of operator C , (Excitation energy) ISPINC=    0

 Print level                                    : IPRSMO =    2
 Threshold for convergence in RSPPP             : THCPP  = 1.000D-03
 Maximum number of iterations in RSPPP          : MAXITP =   60
 Threshold for convergence in RSPLR             : THCLR  = 1.000D-03
 Maximum number of iterations in RSPLR          : MAXITL =   60
 Maximum iterations in optimal orbital algorithm: MAXITO =    5

   12 A OPERATORS OF SYMMETRY NO:    1 AND LABELS:

          XDIPVEL 
          YDIPVEL 
          ZDIPVEL 
          XANGMOM 
          YANGMOM 
          ZANGMOM 
          XXROTSTR
          YYROTSTR
          ZZROTSTR
          XYROTSTR
          XZROTSTR
          YZROTSTR

    3 B OPERATORS OF SYMMETRY NO:    1 AND LABELS:

          XDIPVEL 
          YDIPVEL 
          ZDIPVEL 


   SCF energy         :     -151.557513743101424
 -- inactive part     :     -187.772782772318379
 -- nuclear repulsion :       36.215269029216955


                    *****************************************
                    *** DFT response calculation (TD-DFT) ***
                    *****************************************



 Linear response excitations for quadratic response
 - symmetry of excitation operator    1  ( A  )
 - is the operator a triplet operator ?     F


 Perturbation symmetry.     KSYMOP:       1
 Perturbation spin symmetry.TRPLET:       F
 Orbital variables.         KZWOPT:    3645
 Configuration variables.   KZCONF:       0
 Total number of variables. KZVAR :    3645



 --- EXCITATION ENERGIES AND TRANSITION MOMENT CALCULATION (MCTDHF) ---

 Operator symmetry = 1  ( A  ); triplet =   F


 ** RSPCTL MICROITERATION NUMBER    1

      Root  Residual tot.,    conf., and orb.    Bnorm      Eigenvalue
      ----------------------------------------------------------------
         1    1.91834D-01  0.00D+00  1.92D-01  7.09D-01    1.93772D-01
         2    7.00302D-02  0.00D+00  7.00D-02  7.07D-01    2.39867D-01
         3    2.99860D-01  0.00D+00  3.00D-01  7.11D-01    2.55838D-01
         4    5.38572D-02  0.00D+00  5.39D-02  7.07D-01    2.76919D-01
         5    6.32615D-02  0.00D+00  6.33D-02  7.07D-01    2.80805D-01
         6    5.05491D-02  0.00D+00  5.05D-02  7.07D-01    3.12757D-01

 ** RSPCTL MICROITERATION NUMBER    2

      Root  Residual tot.,    conf., and orb.    Bnorm      Eigenvalue
      ----------------------------------------------------------------
         1    2.40997D-02  0.00D+00  2.41D-02  7.10D-01    1.87457D-01
         2    3.33592D-02  0.00D+00  3.34D-02  7.08D-01    2.37247D-01
         3    9.45419D-02  0.00D+00  9.45D-02  7.08D-01    2.38883D-01
         4    3.03113D-02  0.00D+00  3.03D-02  7.07D-01    2.71974D-01
         5    2.24799D-02  0.00D+00  2.25D-02  7.07D-01    2.78861D-01
         6    2.68396D-02  0.00D+00  2.68D-02  7.07D-01    3.11394D-01

 ** RSPCTL MICROITERATION NUMBER    3

      Root  Residual tot.,    conf., and orb.    Bnorm      Eigenvalue
      ----------------------------------------------------------------
         1    2.62525D-03  0.00D+00  2.63D-03  7.10D-01    1.87301D-01
         2    3.16893D-02  0.00D+00  3.17D-02  7.10D-01    2.34005D-01
         3    7.01625D-03  0.00D+00  7.02D-03  7.07D-01    2.37447D-01
         4    4.20034D-03  0.00D+00  4.20D-03  7.07D-01    2.71728D-01
         5    3.35837D-03  0.00D+00  3.36D-03  7.07D-01    2.78628D-01
         6    3.89235D-03  0.00D+00  3.89D-03  7.07D-01    3.10956D-01

 ** RSPCTL MICROITERATION NUMBER    4

      Root  Residual tot.,    conf., and orb.    Bnorm      Eigenvalue
      ----------------------------------------------------------------
         1    1.87562D-04  0.00D+00  1.88D-04  7.10D-01    1.87299D-01
         2    5.63041D-03  0.00D+00  5.63D-03  7.10D-01    2.33790D-01
         3    1.49970D-03  0.00D+00  1.50D-03  7.07D-01    2.37436D-01
         4    7.68173D-04  0.00D+00  7.68D-04  7.07D-01    2.71718D-01
         5    7.07274D-04  0.00D+00  7.07D-04  7.07D-01    2.78625D-01
         6    8.56932D-04  0.00D+00  8.57D-04  7.07D-01    3.10951D-01

 ** RSPCTL MICROITERATION NUMBER    5

      Root  Residual tot.,    conf., and orb.    Bnorm      Eigenvalue
      ----------------------------------------------------------------
         1    1.48750D-04  0.00D+00  1.49D-04  7.10D-01    1.87299D-01
         2    1.31584D-03  0.00D+00  1.32D-03  7.10D-01    2.33777D-01
         3    2.91446D-04  0.00D+00  2.91D-04  7.07D-01    2.37435D-01
         4    1.16334D-04  0.00D+00  1.16D-04  7.07D-01    2.71718D-01
         5    9.16849D-05  0.00D+00  9.17D-05  7.07D-01    2.78625D-01
         6    1.63490D-04  0.00D+00  1.63D-04  7.07D-01    3.10951D-01

 ** RSPCTL MICROITERATION NUMBER    6

      Root  Residual tot.,    conf., and orb.    Bnorm      Eigenvalue
      ----------------------------------------------------------------
         1    1.48750D-04  0.00D+00  1.49D-04  7.10D-01    1.87299D-01
         2    2.29677D-04  0.00D+00  2.30D-04  7.10D-01    2.33777D-01
         3    1.45186D-04  0.00D+00  1.45D-04  7.07D-01    2.37435D-01
         4    1.16334D-04  0.00D+00  1.16D-04  7.07D-01    2.71718D-01
         5    9.16849D-05  0.00D+00  9.17D-05  7.07D-01    2.78625D-01
         6    1.63489D-04  0.00D+00  1.63D-04  7.07D-01    3.10951D-01

 *** THE REQUESTED    6 SOLUTION VECTORS CONVERGED

 Convergence of RSP solution vectors, threshold = 1.00D-03
 ---------------------------------------------------------------
 (dimension of paired reduced space:   60)
 RSP solution vector no.    1; norm of residual   2.10D-04
 RSP solution vector no.    2; norm of residual   3.24D-04
 RSP solution vector no.    3; norm of residual   2.05D-04
 RSP solution vector no.    4; norm of residual   1.64D-04
 RSP solution vector no.    5; norm of residual   1.30D-04
 RSP solution vector no.    6; norm of residual   2.31D-04

 *** RSPCTL MICROITERATIONS CONVERGED

@ QRPPVE: SINGLET EXCITATION VECTOR    1    SYMMETRY    1  ( A  )
@ Singlet excitation energy  1.872990D-01

@ QRPPVE: SINGLET EXCITATION VECTOR    2    SYMMETRY    1  ( A  )
@ Singlet excitation energy  2.337770D-01

@ QRPPVE: SINGLET EXCITATION VECTOR    3    SYMMETRY    1  ( A  )
@ Singlet excitation energy  2.374348D-01

@ QRPPVE: SINGLET EXCITATION VECTOR    4    SYMMETRY    1  ( A  )
@ Singlet excitation energy  2.717182D-01

@ QRPPVE: SINGLET EXCITATION VECTOR    5    SYMMETRY    1  ( A  )
@ Singlet excitation energy  2.786245D-01

@ QRPPVE: SINGLET EXCITATION VECTOR    6    SYMMETRY    1  ( A  )
@ Singlet excitation energy  3.109506D-01


 Linear response calculations for quadratic response
 - singlet property operator of symmetry    1  ( A  )


 Perturbation symmetry.     KSYMOP:       1
 Perturbation spin symmetry.TRPLET:       F
 Orbital variables.         KZWOPT:    3645
 Configuration variables.   KZCONF:       0
 Total number of variables. KZVAR :    3645


 QRLRVE -- linear response calculation for symmetry  1  ( A  )
 QRLRVE -- operator label : XDIPVEL 
 QRLRVE -- operator spin  :   0
 QRLRVE -- frequencies :  0.093650  0.116888  0.118717  0.135859  0.139312
                          0.155475



 ---  SOLVING SETS OF LINEAR EQUATIONS FOR LINEAR RESPONSE PROPERTIES ---

 Operator symmetry = 1  ( A  ); triplet =   F


 ** RSPCTL MICROITERATION NUMBER    1

       No.  Residual tot.,    conf., and orb.    Bnorm      Frequency 
      ----------------------------------------------------------------
         1    4.18061D-01  0.00D+00  4.18D-01  3.01D+00    9.36495D-02
         2    4.97595D-01  0.00D+00  4.98D-01  3.06D+00    1.16888D-01
         3    5.04341D-01  0.00D+00  5.04D-01  3.06D+00    1.18717D-01
         4    5.71275D-01  0.00D+00  5.71D-01  3.11D+00    1.35859D-01
         5    5.85621D-01  0.00D+00  5.86D-01  3.12D+00    1.39312D-01
         6    6.57182D-01  0.00D+00  6.57D-01  3.17D+00    1.55475D-01

 ** RSPCTL MICROITERATION NUMBER    2

       No.  Residual tot.,    conf., and orb.    Bnorm      Frequency 
      ----------------------------------------------------------------
         1    8.43101D-02  0.00D+00  8.43D-02  3.04D+00    9.36495D-02
         2    1.08734D-01  0.00D+00  1.09D-01  3.11D+00    1.16888D-01
         3    1.10774D-01  0.00D+00  1.11D-01  3.12D+00    1.18717D-01
         4    1.30964D-01  0.00D+00  1.31D-01  3.18D+00    1.35859D-01
         5    1.35304D-01  0.00D+00  1.35D-01  3.20D+00    1.39312D-01
         6    1.57199D-01  0.00D+00  1.57D-01  3.29D+00    1.55475D-01

 ** RSPCTL MICROITERATION NUMBER    3

       No.  Residual tot.,    conf., and orb.    Bnorm      Frequency 
      ----------------------------------------------------------------
         1    1.23491D-02  0.00D+00  1.23D-02  3.04D+00    9.36495D-02
         2    1.60381D-02  0.00D+00  1.60D-02  3.11D+00    1.16888D-01
         3    1.63481D-02  0.00D+00  1.63D-02  3.12D+00    1.18717D-01
         4    1.94301D-02  0.00D+00  1.94D-02  3.19D+00    1.35859D-01
         5    2.00946D-02  0.00D+00  2.01D-02  3.20D+00    1.39312D-01
         6    2.34389D-02  0.00D+00  2.34D-02  3.29D+00    1.55475D-01

 ** RSPCTL MICROITERATION NUMBER    4

       No.  Residual tot.,    conf., and orb.    Bnorm      Frequency 
      ----------------------------------------------------------------
         1    1.15697D-03  0.00D+00  1.16D-03  3.04D+00    9.36495D-02
         2    1.54017D-03  0.00D+00  1.54D-03  3.11D+00    1.16888D-01
         3    1.57367D-03  0.00D+00  1.57D-03  3.12D+00    1.18717D-01
         4    1.91996D-03  0.00D+00  1.92D-03  3.19D+00    1.35859D-01
         5    1.99811D-03  0.00D+00  2.00D-03  3.20D+00    1.39312D-01
         6    2.41379D-03  0.00D+00  2.41D-03  3.29D+00    1.55475D-01

 *** THE REQUESTED    6 SOLUTION VECTORS CONVERGED

 Convergence of RSP solution vectors, threshold = 1.00D-03
 ---------------------------------------------------------------
 (dimension of paired reduced space:   48)
 RSP solution vector no.    1; norm of residual   3.80D-04
 RSP solution vector no.    2; norm of residual   4.95D-04
 RSP solution vector no.    3; norm of residual   5.05D-04
 RSP solution vector no.    4; norm of residual   6.02D-04
 RSP solution vector no.    5; norm of residual   6.24D-04
 RSP solution vector no.    6; norm of residual   7.33D-04

 *** RSPCTL MICROITERATIONS CONVERGED

@ QRLRVE: SINGLET SOLUTION FOR SYMMETRY    1  ( A  )    LABEL   XDIPVEL     FREQUENCY   0.936495D-01

@ QRLRVE:  << XDIPVEL  ; XDIPVEL  >> (   0.09365):     17.8362616258    

@ QRLRVE:  << YDIPVEL  ; XDIPVEL  >> (   0.09365):    5.640759192189E-03

@ QRLRVE:  << ZDIPVEL  ; XDIPVEL  >> (   0.09365):    3.088097297739E-02

@ QRLRVE:  << XANGMOM  ; XDIPVEL  >> (   0.09365):    5.075568821245E-03

@ QRLRVE:  << YANGMOM  ; XDIPVEL  >> (   0.09365):    0.166774591529    

@ QRLRVE:  << ZANGMOM  ; XDIPVEL  >> (   0.09365):    -12.6911341953    

@ QRLRVE:  << XXROTSTR ; XDIPVEL  >> (   0.09365):    -29.1961781312    

@ QRLRVE:  << YYROTSTR ; XDIPVEL  >> (   0.09365):   -1.067598902664E-02

@ QRLRVE:  << ZZROTSTR ; XDIPVEL  >> (   0.09365):   -1.230522891554E-03

@ QRLRVE:  << XYROTSTR ; XDIPVEL  >> (   0.09365):    -12.7811861522    

@ QRLRVE:  << XZROTSTR ; XDIPVEL  >> (   0.09365):   -0.223183708527    

@ QRLRVE:  << YZROTSTR ; XDIPVEL  >> (   0.09365):   -3.134057950510E-02

@ QRLRVE: SINGLET SOLUTION FOR SYMMETRY    1  ( A  )    LABEL   XDIPVEL     FREQUENCY   0.116888D+00

@ QRLRVE:  << XDIPVEL  ; XDIPVEL  >> (   0.11689):     17.9467061065    

@ QRLRVE:  << YDIPVEL  ; XDIPVEL  >> (   0.11689):    8.668642461730E-03

@ QRLRVE:  << ZDIPVEL  ; XDIPVEL  >> (   0.11689):    4.329093529625E-02

@ QRLRVE:  << XANGMOM  ; XDIPVEL  >> (   0.11689):    2.220131314665E-03

@ QRLRVE:  << YANGMOM  ; XDIPVEL  >> (   0.11689):    0.153589431635    

@ QRLRVE:  << ZANGMOM  ; XDIPVEL  >> (   0.11689):    -12.7427510385    

@ QRLRVE:  << XXROTSTR ; XDIPVEL  >> (   0.11689):    -29.3708654383    

@ QRLRVE:  << YYROTSTR ; XDIPVEL  >> (   0.11689):   -1.551251477937E-02

@ QRLRVE:  << ZZROTSTR ; XDIPVEL  >> (   0.11689):   -2.645032991912E-03

@ QRLRVE:  << XYROTSTR ; XDIPVEL  >> (   0.11689):    -12.8811001249    

@ QRLRVE:  << XZROTSTR ; XDIPVEL  >> (   0.11689):   -0.235977705260    

@ QRLRVE:  << YZROTSTR ; XDIPVEL  >> (   0.11689):   -4.699130013244E-02

@ QRLRVE: SINGLET SOLUTION FOR SYMMETRY    1  ( A  )    LABEL   XDIPVEL     FREQUENCY   0.118717D+00

@ QRLRVE:  << XDIPVEL  ; XDIPVEL  >> (   0.11872):     17.9567242688    

@ QRLRVE:  << YDIPVEL  ; XDIPVEL  >> (   0.11872):    8.949275685636E-03

@ QRLRVE:  << ZDIPVEL  ; XDIPVEL  >> (   0.11872):    4.439032153020E-02

@ QRLRVE:  << XANGMOM  ; XDIPVEL  >> (   0.11872):    1.833316375763E-03

@ QRLRVE:  << YANGMOM  ; XDIPVEL  >> (   0.11872):    0.152443161337    

@ QRLRVE:  << ZANGMOM  ; XDIPVEL  >> (   0.11872):    -12.7474100610    

@ QRLRVE:  << XXROTSTR ; XDIPVEL  >> (   0.11872):    -29.3866837346    

@ QRLRVE:  << YYROTSTR ; XDIPVEL  >> (   0.11872):   -1.597615417907E-02

@ QRLRVE:  << ZZROTSTR ; XDIPVEL  >> (   0.11872):   -2.774057801370E-03

@ QRLRVE:  << XYROTSTR ; XDIPVEL  >> (   0.11872):    -12.8902459342    

@ QRLRVE:  << XZROTSTR ; XDIPVEL  >> (   0.11872):   -0.237134747469    

@ QRLRVE:  << YZROTSTR ; XDIPVEL  >> (   0.11872):   -4.839156123736E-02

@ QRLRVE: SINGLET SOLUTION FOR SYMMETRY    1  ( A  )    LABEL   XDIPVEL     FREQUENCY   0.135859D+00

@ QRLRVE:  << XDIPVEL  ; XDIPVEL  >> (   0.13586):     18.0611635585    

@ QRLRVE:  << YDIPVEL  ; XDIPVEL  >> (   0.13586):    1.192074237936E-02

@ QRLRVE:  << ZDIPVEL  ; XDIPVEL  >> (   0.13586):    5.552167250902E-02

@ QRLRVE:  << XANGMOM  ; XDIPVEL  >> (   0.13586):   -3.717506550348E-03

@ QRLRVE:  << YANGMOM  ; XDIPVEL  >> (   0.13586):    0.141316372803    

@ QRLRVE:  << ZANGMOM  ; XDIPVEL  >> (   0.13586):    -12.7959423218    

@ QRLRVE:  << XXROTSTR ; XDIPVEL  >> (   0.13586):    -29.5512610083    

@ QRLRVE:  << YYROTSTR ; XDIPVEL  >> (   0.13586):   -2.105298419035E-02

@ QRLRVE:  << ZZROTSTR ; XDIPVEL  >> (   0.13586):   -4.128453678265E-03

@ QRLRVE:  << XYROTSTR ; XDIPVEL  >> (   0.13586):    -12.9865598459    

@ QRLRVE:  << XZROTSTR ; XDIPVEL  >> (   0.13586):   -0.249125538878    

@ QRLRVE:  << YZROTSTR ; XDIPVEL  >> (   0.13586):   -6.277065746473E-02

@ QRLRVE: SINGLET SOLUTION FOR SYMMETRY    1  ( A  )    LABEL   XDIPVEL     FREQUENCY   0.139312D+00

@ QRLRVE:  << XDIPVEL  ; XDIPVEL  >> (   0.13931):     18.0846816319    

@ QRLRVE:  << YDIPVEL  ; XDIPVEL  >> (   0.13931):    1.259713046974E-02

@ QRLRVE:  << ZDIPVEL  ; XDIPVEL  >> (   0.13931):    5.793240420284E-02

@ QRLRVE:  << XANGMOM  ; XDIPVEL  >> (   0.13931):   -5.397532185633E-03

@ QRLRVE:  << YANGMOM  ; XDIPVEL  >> (   0.13931):    0.139094242934    

@ QRLRVE:  << ZANGMOM  ; XDIPVEL  >> (   0.13931):    -12.8068971262    

@ QRLRVE:  << XXROTSTR ; XDIPVEL  >> (   0.13931):    -29.5882271561    

@ QRLRVE:  << YYROTSTR ; XDIPVEL  >> (   0.13931):   -2.225308883224E-02

@ QRLRVE:  << ZZROTSTR ; XDIPVEL  >> (   0.13931):   -4.435664532781E-03

@ QRLRVE:  << XYROTSTR ; XDIPVEL  >> (   0.13931):    -13.0085179425    

@ QRLRVE:  << XZROTSTR ; XDIPVEL  >> (   0.13931):   -0.251799885082    

@ QRLRVE:  << YZROTSTR ; XDIPVEL  >> (   0.13931):   -6.594875020538E-02

@ QRLRVE: SINGLET SOLUTION FOR SYMMETRY    1  ( A  )    LABEL   XDIPVEL     FREQUENCY   0.155475D+00

@ QRLRVE:  << XDIPVEL  ; XDIPVEL  >> (   0.15548):     18.2074828030    

@ QRLRVE:  << YDIPVEL  ; XDIPVEL  >> (   0.15548):    1.606655144514E-02

@ QRLRVE:  << ZDIPVEL  ; XDIPVEL  >> (   0.15548):    6.977192966457E-02

@ QRLRVE:  << XANGMOM  ; XDIPVEL  >> (   0.15548):   -1.741635933234E-02

@ QRLRVE:  << YANGMOM  ; XDIPVEL  >> (   0.15548):    0.130602337668    

@ QRLRVE:  << ZANGMOM  ; XDIPVEL  >> (   0.15548):    -12.8647129945    

@ QRLRVE:  << XXROTSTR ; XDIPVEL  >> (   0.15548):    -29.7805223308    

@ QRLRVE:  << YYROTSTR ; XDIPVEL  >> (   0.15548):   -2.870150642363E-02

@ QRLRVE:  << ZZROTSTR ; XDIPVEL  >> (   0.15548):   -6.035971076134E-03

@ QRLRVE:  << XYROTSTR ; XDIPVEL  >> (   0.15548):    -13.1250843571    

@ QRLRVE:  << XZROTSTR ; XDIPVEL  >> (   0.15548):   -0.265478752048    

@ QRLRVE:  << YZROTSTR ; XDIPVEL  >> (   0.15548):   -8.211659767024E-02


 QRLRVE -- linear response calculation for symmetry  1  ( A  )
 QRLRVE -- operator label : YDIPVEL 
 QRLRVE -- operator spin  :   0
 QRLRVE -- frequencies :  0.093650  0.116888  0.118717  0.135859  0.139312
                          0.155475



 ---  SOLVING SETS OF LINEAR EQUATIONS FOR LINEAR RESPONSE PROPERTIES ---

 Operator symmetry = 1  ( A  ); triplet =   F


 ** RSPCTL MICROITERATION NUMBER    1

       No.  Residual tot.,    conf., and orb.    Bnorm      Frequency 
      ----------------------------------------------------------------
         1    2.94525D-01  0.00D+00  2.95D-01  2.63D+00    9.36495D-02
         2    3.21873D-01  0.00D+00  3.22D-01  2.67D+00    1.16888D-01
         3    3.24322D-01  0.00D+00  3.24D-01  2.67D+00    1.18717D-01
         4    3.49838D-01  0.00D+00  3.50D-01  2.71D+00    1.35859D-01
         5    3.55654D-01  0.00D+00  3.56D-01  2.72D+00    1.39312D-01
         6    3.87863D-01  0.00D+00  3.88D-01  2.79D+00    1.55475D-01

[...]


 Second order moment in a.u. for
 A operator label,  symmetry, spin:      XANGMOM     1    0
 B operator label,  symmetry, spin:      XDIPVEL     1    0
 Excited state no., symmetry, spin:             6    1    0

 omega B, excitation energy, moment :    0.155475    0.310951    1.788647
 MAGNETIC           1           1           6


 Second order moment in a.u. for
 A operator label,  symmetry, spin:      YANGMOM     1    0
 B operator label,  symmetry, spin:      XDIPVEL     1    0
 Excited state no., symmetry, spin:             6    1    0

 omega B, excitation energy, moment :    0.155475    0.310951    1.605996
 MAGNETIC           2           1           6


 Second order moment in a.u. for
 A operator label,  symmetry, spin:      ZANGMOM     1    0
 B operator label,  symmetry, spin:      XDIPVEL     1    0
 Excited state no., symmetry, spin:             6    1    0

 omega B, excitation energy, moment :    0.155475    0.310951   -4.626748
 MAGNETIC           3           1           6


 Second order moment in a.u. for
 A operator label,  symmetry, spin:      XXROTSTR    1    0
 B operator label,  symmetry, spin:      XDIPVEL     1    0
 Excited state no., symmetry, spin:             6    1    0

 omega B, excitation energy, moment :    0.155475    0.310951   -1.479086
 QUADRUPOLE           1           1


 Second order moment in a.u. for
 A operator label,  symmetry, spin:      YYROTSTR    1    0
 B operator label,  symmetry, spin:      XDIPVEL     1    0
 Excited state no., symmetry, spin:             6    1    0

 omega B, excitation energy, moment :    0.155475    0.310951    1.773162
 QUADRUPOLE           2           1


 Second order moment in a.u. for
 A operator label,  symmetry, spin:      ZZROTSTR    1    0
 B operator label,  symmetry, spin:      XDIPVEL     1    0
 Excited state no., symmetry, spin:             6    1    0

 omega B, excitation energy, moment :    0.155475    0.310951   -0.134024
 QUADRUPOLE           3           1


 Second order moment in a.u. for
 A operator label,  symmetry, spin:      XYROTSTR    1    0
 B operator label,  symmetry, spin:      XDIPVEL     1    0
 Excited state no., symmetry, spin:             6    1    0

 omega B, excitation energy, moment :    0.155475    0.310951    6.827466
 QUADRUPOLE           4           1


 Second order moment in a.u. for
 A operator label,  symmetry, spin:      XZROTSTR    1    0
 B operator label,  symmetry, spin:      XDIPVEL     1    0
 Excited state no., symmetry, spin:             6    1    0

 omega B, excitation energy, moment :    0.155475    0.310951    1.105298
 QUADRUPOLE           5           1


 Second order moment in a.u. for
 A operator label,  symmetry, spin:      YZROTSTR    1    0
 B operator label,  symmetry, spin:      XDIPVEL     1    0
 Excited state no., symmetry, spin:             6    1    0

 omega B, excitation energy, moment :    0.155475    0.310951   -0.243574
 QUADRUPOLE           6           1


 Second order moment in a.u. for
 A operator label,  symmetry, spin:      XDIPVEL     1    0
 B operator label,  symmetry, spin:      YDIPVEL     1    0
 Excited state no., symmetry, spin:             6    1    0

 omega B, excitation energy, moment :    0.155475    0.310951   -1.094684
 ELECTRIC           1           2


 Second order moment in a.u. for
 A operator label,  symmetry, spin:      YDIPVEL     1    0
 B operator label,  symmetry, spin:      YDIPVEL     1    0
 Excited state no., symmetry, spin:             6    1    0

 omega B, excitation energy, moment :    0.155475    0.310951   -2.506993
 ELECTRIC           2           2


 Second order moment in a.u. for
 A operator label,  symmetry, spin:      ZDIPVEL     1    0
 B operator label,  symmetry, spin:      YDIPVEL     1    0
 Excited state no., symmetry, spin:             6    1    0

 omega B, excitation energy, moment :    0.155475    0.310951    0.904092
 ELECTRIC           3           2


 Second order moment in a.u. for
 A operator label,  symmetry, spin:      XANGMOM     1    0
 B operator label,  symmetry, spin:      YDIPVEL     1    0
 Excited state no., symmetry, spin:             6    1    0

 omega B, excitation energy, moment :    0.155475    0.310951    1.056999
 MAGNETIC           1           2           6


 Second order moment in a.u. for
 A operator label,  symmetry, spin:      YANGMOM     1    0
 B operator label,  symmetry, spin:      YDIPVEL     1    0
 Excited state no., symmetry, spin:             6    1    0

 omega B, excitation energy, moment :    0.155475    0.310951   -5.176870
 MAGNETIC           2           2           6


 Second order moment in a.u. for
 A operator label,  symmetry, spin:      ZANGMOM     1    0
 B operator label,  symmetry, spin:      YDIPVEL     1    0
 Excited state no., symmetry, spin:             6    1    0

 omega B, excitation energy, moment :    0.155475    0.310951   -3.323777
 MAGNETIC           3           2           6


 Second order moment in a.u. for
 A operator label,  symmetry, spin:      XXROTSTR    1    0
 B operator label,  symmetry, spin:      YDIPVEL     1    0
 Excited state no., symmetry, spin:             6    1    0

 omega B, excitation energy, moment :    0.155475    0.310951    8.478454
 QUADRUPOLE           1           2


 Second order moment in a.u. for
 A operator label,  symmetry, spin:      YYROTSTR    1    0
 B operator label,  symmetry, spin:      YDIPVEL     1    0
 Excited state no., symmetry, spin:             6    1    0

 omega B, excitation energy, moment :    0.155475    0.310951    2.728364
 QUADRUPOLE           2           2


 Second order moment in a.u. for
 A operator label,  symmetry, spin:      ZZROTSTR    1    0
 B operator label,  symmetry, spin:      YDIPVEL     1    0
 Excited state no., symmetry, spin:             6    1    0

 omega B, excitation energy, moment :    0.155475    0.310951    0.716872
 QUADRUPOLE           3           2


 Second order moment in a.u. for
 A operator label,  symmetry, spin:      XYROTSTR    1    0
 B operator label,  symmetry, spin:      YDIPVEL     1    0
 Excited state no., symmetry, spin:             6    1    0

 omega B, excitation energy, moment :    0.155475    0.310951    3.007839
 QUADRUPOLE           4           2


 Second order moment in a.u. for
 A operator label,  symmetry, spin:      XZROTSTR    1    0
 B operator label,  symmetry, spin:      YDIPVEL     1    0
 Excited state no., symmetry, spin:             6    1    0

 omega B, excitation energy, moment :    0.155475    0.310951   -1.491585
 QUADRUPOLE           5           2


 Second order moment in a.u. for
 A operator label,  symmetry, spin:      YZROTSTR    1    0
 B operator label,  symmetry, spin:      YDIPVEL     1    0
 Excited state no., symmetry, spin:             6    1    0

 omega B, excitation energy, moment :    0.155475    0.310951    0.080113
 QUADRUPOLE           6           2


 Second order moment in a.u. for
 A operator label,  symmetry, spin:      XDIPVEL     1    0
 B operator label,  symmetry, spin:      ZDIPVEL     1    0
 Excited state no., symmetry, spin:             6    1    0

 omega B, excitation energy, moment :    0.155475    0.310951    3.073123
 ELECTRIC           1           3


 Second order moment in a.u. for
 A operator label,  symmetry, spin:      YDIPVEL     1    0
 B operator label,  symmetry, spin:      ZDIPVEL     1    0
 Excited state no., symmetry, spin:             6    1    0

 omega B, excitation energy, moment :    0.155475    0.310951    0.904092
 ELECTRIC           2           3


 Second order moment in a.u. for
 A operator label,  symmetry, spin:      ZDIPVEL     1    0
 B operator label,  symmetry, spin:      ZDIPVEL     1    0
 Excited state no., symmetry, spin:             6    1    0

 omega B, excitation energy, moment :    0.155475    0.310951   -4.600036
 ELECTRIC           3           3


 Second order moment in a.u. for
 A operator label,  symmetry, spin:      XANGMOM     1    0
 B operator label,  symmetry, spin:      ZDIPVEL     1    0
 Excited state no., symmetry, spin:             6    1    0

 omega B, excitation energy, moment :    0.155475    0.310951   -0.262599
 MAGNETIC           1           3           6


 Second order moment in a.u. for
 A operator label,  symmetry, spin:      YANGMOM     1    0
 B operator label,  symmetry, spin:      ZDIPVEL     1    0
 Excited state no., symmetry, spin:             6    1    0

 omega B, excitation energy, moment :    0.155475    0.310951   -1.791771
 MAGNETIC           2           3           6


 Second order moment in a.u. for
 A operator label,  symmetry, spin:      ZANGMOM     1    0
 B operator label,  symmetry, spin:      ZDIPVEL     1    0
 Excited state no., symmetry, spin:             6    1    0

 omega B, excitation energy, moment :    0.155475    0.310951    6.235458
 MAGNETIC           3           3           6


 Second order moment in a.u. for
 A operator label,  symmetry, spin:      XXROTSTR    1    0
 B operator label,  symmetry, spin:      ZDIPVEL     1    0
 Excited state no., symmetry, spin:             6    1    0

 omega B, excitation energy, moment :    0.155475    0.310951    1.524610
 QUADRUPOLE           1           3


 Second order moment in a.u. for
 A operator label,  symmetry, spin:      YYROTSTR    1    0
 B operator label,  symmetry, spin:      ZDIPVEL     1    0
 Excited state no., symmetry, spin:             6    1    0

 omega B, excitation energy, moment :    0.155475    0.310951   -0.101630
 QUADRUPOLE           2           3


 Second order moment in a.u. for
 A operator label,  symmetry, spin:      ZZROTSTR    1    0
 B operator label,  symmetry, spin:      ZDIPVEL     1    0
 Excited state no., symmetry, spin:             6    1    0

 omega B, excitation energy, moment :    0.155475    0.310951   -0.206215
 QUADRUPOLE           3           3


 Second order moment in a.u. for
 A operator label,  symmetry, spin:      XYROTSTR    1    0
 B operator label,  symmetry, spin:      ZDIPVEL     1    0
 Excited state no., symmetry, spin:             6    1    0

 omega B, excitation energy, moment :    0.155475    0.310951   -2.433965
 QUADRUPOLE           4           3


 Second order moment in a.u. for
 A operator label,  symmetry, spin:      XZROTSTR    1    0
 B operator label,  symmetry, spin:      ZDIPVEL     1    0
 Excited state no., symmetry, spin:             6    1    0

 omega B, excitation energy, moment :    0.155475    0.310951   -0.057734
 QUADRUPOLE           5           3


 Second order moment in a.u. for
 A operator label,  symmetry, spin:      YZROTSTR    1    0
 B operator label,  symmetry, spin:      ZDIPVEL     1    0
 Excited state no., symmetry, spin:             6    1    0

 omega B, excitation energy, moment :    0.155475    0.310951   -0.412515
 QUADRUPOLE           6           3


       *******************************************************************
       ************ FINAL RESULTS FROM TWO-PHOTON CALCULATION ************
       *******************************************************************

 The two-photon absorption strength for an average molecular  
 orientation is computed according to formulas given by       
 P.R. Monson and W.M. McClain in J. Chem. Phys. 53:29, 1970   
 and W.M. McClain in J. Chem. Phys. 55:2789, 1971.            
 The absorption depends on the light polarization.            
 A monochromatic light source is assumed.                     

 All results are presented in atomic units, except the        
 excitation energy which is given in eV and two-photon cross  
 section which is given in GM. A FWHM of 0.1 eV is assumed.   

   Conversion factors:
      1 a.u. = 1.896788 10^{-50} cm^4 s/photon
      1 GM = 10^{-50} cm^4 s/photon


                  +--------------------------------+
                  | Two-photon transition tensor S |
                  +--------------------------------+
     ---------------------------------------------------------------------------------
     Sym  No  Energy        Sxx        Syy        Szz        Sxy        Sxz        Syz
     ---------------------------------------------------------------------------------
       1   1    5.10     0.1     0.2     0.3    -0.6    -0.3     1.0
       1   2    6.36    -0.0    -0.9    -0.9    -0.1     2.9     0.4
       1   3    6.46     0.7     1.1    -0.5     0.7    -0.2     0.4
       1   4    7.39     0.1    -0.3    -0.9    -3.2    -0.6    -0.3
       1   5    7.58     0.5    -0.0     0.7     2.4     1.3     1.6
       1   6    8.46     1.1     0.1    -0.2    -1.5    -0.1    -0.4


         +-------------------------------------------------+
         | Two-photon transition tensor P (velocity gauge) |
         +-------------------------------------------------+
     ---------------------------------------------------------------------------------
     Sym  No  Frequ.        Pxx        Pyy        Pzz        Pxy        Pxz        Pyz
     ---------------------------------------------------------------------------------
       1   1 0.09365      2.455      1.127      0.188      0.039      0.687      0.289
       1   2 0.11689      0.025      0.143     -0.173     -0.122      0.039     -0.428
       1   3 0.11872      2.853     -1.216     -1.631    -10.238     -1.460     -4.260
       1   4 0.13586      7.017      4.079     -4.334      0.311      0.268      1.753
       1   5 0.13931      3.824      1.839     -3.810      1.721     -7.199      0.076
       1   6 0.15548     -5.708     -2.507     -4.600     -1.095      3.073      0.904


        +--------------------------------------------------+
        | El. dip.-mag. dip. trans. tensor  M (vel. gauge) |
        +--------------------------------------------------+
     ------------------------------------------------------------------------------------------------------------------
     Sym  No  Energy        Mxx        Myy        Mzz        Mxy        Mxz        Myx        Myz        Mzx        Mzy
     ------------------------------------------------------------------------------------------------------------------
       1   1    5.10      1.057     -0.494      1.720      0.758     -2.748     -1.648     -0.819      8.950      0.916
       1   2    6.36     -0.755      0.454      0.301     -2.885     -1.170      8.285      4.406      1.983     -2.533
       1   3    6.46     -0.725      1.352     -0.627      1.807      0.088      2.305      1.841     -0.344     -2.454
       1   4    7.39     -1.413     -3.278      4.471      1.432     -5.419     -0.203     -1.743      1.722     -0.785
       1   5    7.58     -1.781      3.422     -5.102     -0.654     -0.436      0.952      2.309     -4.210      1.376
       1   6    8.46      1.789     -5.177      6.235      1.057     -0.263      1.606     -1.792     -4.627     -3.324


        +--------------------------------------------------+
        | El. dip.-el. quad. trans. tensor  T (vel. gauge) |
        +--------------------------------------------------+
     ---------------------------------------------------------------------------------------------------------------------------------------------------------------------------------------------------------------------
     Sym  No  Energy       Txxx       Txxy       Txxz       Tyyx       Tyyy       Tyyz       Tzzx       Tzzy       Tzzz       Txyx       Txyy       Txyz       Txzx       Txzy       Txzz       Tyzx       Tyzy       Tyzz
     ---------------------------------------------------------------------------------------------------------------------------------------------------------------------------------------------------------------------
       1   1    5.10     -0.274     -1.070     -0.202     -0.080      1.994     -0.141     -0.112     -0.463      0.321      0.015     -0.322     -0.486      0.114     -0.561     -0.346     -0.491      0.151      1.016
       1   2    6.36      2.730     -0.294      1.111     -0.321      0.738      0.184      0.592     -0.086     -0.945      0.194      1.707     -0.054     -0.005     -0.062      2.898     -0.058     -0.877      0.446
       1   3    6.46     -0.889      1.575      0.290      3.180      0.458      0.887      1.098      0.536     -0.463      0.203      2.175      0.846      0.686      0.733     -0.178      0.201      1.054      0.361
       1   4    7.39     -0.211     -4.124      0.012      0.132     -1.635     -1.141     -0.432     -3.184     -0.851     -3.641     -0.094     -3.257      0.109     -3.171     -0.644     -2.201     -0.343     -0.280
       1   5    7.58     -1.343      0.490      1.101     -0.550     -0.882      0.120      0.478      1.256      0.737      0.795     -1.009      3.157      0.517      2.365      1.256      2.283     -0.026      1.613
       1   6    8.46     -1.479      8.478      1.525      1.773      2.728     -0.102     -0.134      0.717     -0.206      6.827      3.008     -2.434      1.105     -1.492     -0.058     -0.244      0.080     -0.413
     ------------------------------------------------------------------------


                    Transition probabilities (a.u.)         
                   -----------------------------------------
                    D  =  2*Df + 4*Dg, Linear   polarization
                    D  = -2*Df + 6*Dg, Circular polarization
                    Df = sum(i,j){ S_ii * S_jj }/30         
                    Dg = sum(i,j){ S_ij * S_ij }/30         

                   Two-photon cross sections                
         ---------------------------------------------------
          sigma  =  8*pi^3*alpha^2*hbar/e^4 * E^2*D   (a.u.)

                             Polarization ratio      
                      -------------------------------
                          R  = (-Df+3*Dg)/(Df+2*Dg)  


                   +-----------------------------------+
                   |   Two-photon absorption summary   |
                   +-----------------------------------+
   ---------------------------------------------------------------------------------
   Sym  No  Energy  Polarization         Df         Dg          D      sigma       R
   ---------------------------------------------------------------------------------
     1   1    5.10   Linear       0.115E-01  0.102E+00  0.433E+00  0.824E-02    1.37
     1   1    5.10   Circular     0.115E-01  0.102E+00  0.592E+00  0.113E-01    1.37
     1   2    6.36   Linear       0.111E+00  0.629E+00  0.274E+01  0.812E-01    1.30
     1   2    6.36   Circular     0.111E+00  0.629E+00  0.355E+01  0.105E+00    1.30
     1   3    6.46   Linear       0.544E-01  0.106E+00  0.534E+00  0.163E-01    0.99
     1   3    6.46   Circular     0.544E-01  0.106E+00  0.530E+00  0.162E-01    0.99
     1   4    7.39   Linear       0.393E-01  0.732E+00  0.300E+01  0.120E+00    1.43
     1   4    7.39   Circular     0.393E-01  0.732E+00  0.431E+01  0.173E+00    1.43
     1   5    7.58   Linear       0.502E-01  0.679E+00  0.281E+01  0.119E+00    1.41
     1   5    7.58   Circular     0.502E-01  0.679E+00  0.397E+01  0.167E+00    1.41
     1   6    8.46   Linear       0.320E-01  0.202E+00  0.873E+00  0.458E-01    1.32
     1   6    8.46   Circular     0.320E-01  0.202E+00  0.115E+01  0.603E-01    1.32
   ---------------------------------------------------------------------------------

  Total CPU  time used in RESPONSE: 20 minutes 48 seconds
  Total wall time used in RESPONSE: 20 minutes 47 seconds


                   .-------------------------------------------.
                   | End of Dynamic Property Section (RESPONS) |
                   `-------------------------------------------'



 PLTORB knows S,P,D,F,G shells. The basis set contains orbital(s) with higher angular momentum,
 and the writing of MOLPLT file is thus abandoned.

  Total CPU  time used in DALTON: 22 minutes 59 seconds
  Total wall time used in DALTON: 22 minutes 59 seconds

 
     Date and time (Linux)  : Thu May  7 11:05:39 2020
     Host name              : s74p30.deic.sdu.dk                      
