

     ************************************************************************
     *************** Dalton - An Electronic Structure Program ***************
     ************************************************************************

    This is output from DALTON release Dalton2019.alpha (2019)
         ( Web site: http://daltonprogram.org )

   ----------------------------------------------------------------------------

    NOTE:
     
    Dalton is an experimental code for the evaluation of molecular
    properties using (MC)SCF, DFT, CI, and CC wave functions.
    The authors accept no responsibility for the performance of
    the code or for the correctness of the results.
     
    The code (in whole or part) is provided under a licence and
    is not to be reproduced for further distribution without
    the written permission of the authors or their representatives.
     
    See the home page "http://daltonprogram.org" for further information.
     
    If results obtained with this code are published,
    the appropriate citations would be both of:
     
       K. Aidas, C. Angeli, K. L. Bak, V. Bakken, R. Bast,
       L. Boman, O. Christiansen, R. Cimiraglia, S. Coriani,
       P. Dahle, E. K. Dalskov, U. Ekstroem,
       T. Enevoldsen, J. J. Eriksen, P. Ettenhuber, B. Fernandez,
       L. Ferrighi, H. Fliegl, L. Frediani, K. Hald, A. Halkier,
       C. Haettig, H. Heiberg, T. Helgaker, A. C. Hennum,
       H. Hettema, E. Hjertenaes, S. Hoest, I.-M. Hoeyvik,
       M. F. Iozzi, B. Jansik, H. J. Aa. Jensen, D. Jonsson,
       P. Joergensen, J. Kauczor, S. Kirpekar,
       T. Kjaergaard, W. Klopper, S. Knecht, R. Kobayashi, H. Koch,
       J. Kongsted, A. Krapp, K. Kristensen, A. Ligabue,
       O. B. Lutnaes, J. I. Melo, K. V. Mikkelsen, R. H. Myhre,
       C. Neiss, C. B. Nielsen, P. Norman, J. Olsen,
       J. M. H. Olsen, A. Osted, M. J. Packer, F. Pawlowski,
       T. B. Pedersen, P. F. Provasi, S. Reine, Z. Rinkevicius,
       T. A. Ruden, K. Ruud, V. Rybkin, P. Salek, C. C. M. Samson,
       A. Sanchez de Meras, T. Saue, S. P. A. Sauer,
       B. Schimmelpfennig, K. Sneskov, A. H. Steindal,
       K. O. Sylvester-Hvid, P. R. Taylor, A. M. Teale,
       E. I. Tellgren, D. P. Tew, A. J. Thorvaldsen, L. Thoegersen,
       O. Vahtras, M. A. Watson, D. J. D. Wilson, M. Ziolkowski
       and H. Agren,
       "The Dalton quantum chemistry program system",
       WIREs Comput. Mol. Sci. 2014, 4:269–284 (doi: 10.1002/wcms.1172)
     
    and
     
       Dalton, a molecular electronic structure program,
       Release Dalton2019.alpha (2019), see http://daltonprogram.org
   ----------------------------------------------------------------------------

    Authors in alphabetical order (major contribution(s) in parenthesis):

  Kestutis Aidas,           Vilnius University,           Lithuania   (QM/MM)
  Celestino Angeli,         University of Ferrara,        Italy       (NEVPT2)
  Keld L. Bak,              UNI-C,                        Denmark     (AOSOPPA, non-adiabatic coupling, magnetic properties)
  Vebjoern Bakken,          University of Oslo,           Norway      (DALTON; geometry optimizer, symmetry detection)
  Radovan Bast,             UiT The Arctic U. of Norway,  Norway      (DALTON installation and execution frameworks)
  Pablo Baudin,             University of Valencia,       Spain       (Cholesky excitation energies)
  Linus Boman,              NTNU,                         Norway      (Cholesky decomposition and subsystems)
  Ove Christiansen,         Aarhus University,            Denmark     (CC module)
  Renzo Cimiraglia,         University of Ferrara,        Italy       (NEVPT2)
  Sonia Coriani,            Technical Univ. of Denmark,   Denmark     (CC module, MCD in RESPONS)
  Janusz Cukras,            University of Trieste,        Italy       (MChD in RESPONS)
  Paal Dahle,               University of Oslo,           Norway      (Parallelization)
  Erik K. Dalskov,          UNI-C,                        Denmark     (SOPPA)
  Thomas Enevoldsen,        Univ. of Southern Denmark,    Denmark     (SOPPA)
  Janus J. Eriksen,         Aarhus University,            Denmark     (Polarizable embedding model, TDA)
  Rasmus Faber,             University of Copenhagen,     Denmark     (Vib.avg. NMR with SOPPA, parallel AO-SOPPA)
  Tobias Fahleson,          KTH Stockholm,                Sweden      (Damped cubic response)
  Berta Fernandez,          U. of Santiago de Compostela, Spain       (doublet spin, ESR in RESPONS)
  Lara Ferrighi,            Aarhus University,            Denmark     (PCM Cubic response)
  Heike Fliegl,             University of Oslo,           Norway      (CCSD(R12))
  Luca Frediani,            UiT The Arctic U. of Norway,  Norway      (PCM)
  Bin Gao,                  UiT The Arctic U. of Norway,  Norway      (Gen1Int library)
  Christof Haettig,         Ruhr-University Bochum,       Germany     (CC module)
  Kasper Hald,              Aarhus University,            Denmark     (CC module)
  Asger Halkier,            Aarhus University,            Denmark     (CC module)
  Frederik Beyer Hansen,    University of Copenhagen,     Denmark     (Parallel AO-SOPPA)
  Erik D. Hedegaard,        Univ. of Southern Denmark,    Denmark     (Polarizable embedding model, QM/MM)
  Hanne Heiberg,            University of Oslo,           Norway      (geometry analysis, selected one-electron integrals)
  Trygve Helgaker,          University of Oslo,           Norway      (DALTON; ABACUS, ERI, DFT modules, London, and much more)
  Alf Christian Hennum,     University of Oslo,           Norway      (Parity violation)
  Hinne Hettema,            University of Auckland,       New Zealand (quadratic response in RESPONS; SIRIUS supersymmetry)
  Eirik Hjertenaes,         NTNU,                         Norway      (Cholesky decomposition)
  Pi A. B. Haase,           University of Copenhagen,     Denmark     (Triplet AO-SOPPA)
  Maria Francesca Iozzi,    University of Oslo,           Norway      (RPA)
  Christoph Jacob           TU Braunschweig               Germany     (Frozen density embedding model)
  Brano Jansik              Technical Univ. of Ostrava    Czech Rep.  (DFT cubic response)
  Hans Joergen Aa. Jensen,  Univ. of Southern Denmark,    Denmark     (DALTON; SIRIUS, RESPONS, ABACUS modules, London, and much more)
  Dan Jonsson,              UiT The Arctic U. of Norway,  Norway      (cubic response in RESPONS module)
  Poul Joergensen,          Aarhus University,            Denmark     (RESPONS, ABACUS, and CC modules)
  Maciej Kaminski,          University of Warsaw,         Poland      (CPPh in RESPONS)
  Joanna Kauczor,           Linkoeping University,        Sweden      (Complex polarization propagator (CPP) module)
  Sheela Kirpekar,          Univ. of Southern Denmark,    Denmark     (Mass-velocity & Darwin integrals)
  Wim Klopper,              KIT Karlsruhe,                Germany     (R12 code in CC, SIRIUS, and ABACUS modules)
  Stefan Knecht,            ETH Zurich,                   Switzerland (Parallel CI and MCSCF)
  Rika Kobayashi,           Australian National Univ.,    Australia   (DIIS in CC, London in MCSCF)
  Henrik Koch,              NTNU,                         Norway      (CC module, Cholesky decomposition)
  Jacob Kongsted,           Univ. of Southern Denmark,    Denmark     (Polarizable embedding model, QM/MM)
  Andrea Ligabue,           University of Modena,         Italy       (CTOCD, AOSOPPA)
  Nanna H. List             Univ. of Southern Denmark,    Denmark     (Polarizable embedding model)
  Ola B. Lutnaes,           University of Oslo,           Norway      (DFT Hessian)
  Juan I. Melo,             University of Buenos Aires,   Argentina   (LRESC, Relativistic Effects on NMR Shieldings)
  Kurt V. Mikkelsen,        University of Copenhagen,     Denmark     (MC-SCRF and QM/MM)
  Rolf H. Myhre,            NTNU,                         Norway      (Subsystems and CC3)
  Christian Neiss,          Univ. Erlangen-Nuernberg,     Germany     (CCSD(R12))
  Christian B. Nielsen,     University of Copenhagen,     Denmark     (QM/MM)
  Patrick Norman,           KTH Stockholm,                Sweden      (Cubic response and complex frequency response in RESPONS)
  Jeppe Olsen,              Aarhus University,            Denmark     (SIRIUS CI/density modules)
  Jogvan Magnus H. Olsen,   Univ. of Southern Denmark,    Denmark     (Polarizable embedding model, QM/MM)
  Anders Osted,             Copenhagen University,        Denmark     (QM/MM)
  Martin J. Packer,         University of Sheffield,      UK          (SOPPA)
  Filip Pawlowski,          Kazimierz Wielki University,  Poland      (CC3)
  Morten N. Pedersen,       Univ. of Southern Denmark,    Denmark     (Polarizable embedding model)
  Thomas B. Pedersen,       University of Oslo,           Norway      (Cholesky decomposition)
  Patricio F. Provasi,      University of Northeastern,   Argentina   (Analysis of coupling constants in localized orbitals)
  Zilvinas Rinkevicius,     KTH Stockholm,                Sweden      (open-shell DFT, ESR)
  Elias Rudberg,            KTH Stockholm,                Sweden      (DFT grid and basis info)
  Torgeir A. Ruden,         University of Oslo,           Norway      (Numerical derivatives in ABACUS)
  Kenneth Ruud,             UiT The Arctic U. of Norway,  Norway      (DALTON; ABACUS magnetic properties and much more)
  Pawel Salek,              KTH Stockholm,                Sweden      (DALTON; DFT code)
  Claire C. M. Samson       University of Karlsruhe       Germany     (Boys localization, r12 integrals in ERI)
  Alfredo Sanchez de Meras, University of Valencia,       Spain       (CC module, Cholesky decomposition)
  Trond Saue,               Paul Sabatier University,     France      (direct Fock matrix construction)
  Stephan P. A. Sauer,      University of Copenhagen,     Denmark     (SOPPA(CCSD), SOPPA prop., AOSOPPA, vibrational g-factors)
  Andre S. P. Gomes,        CNRS/Universite de Lille,     France      (Frozen density embedding model)
  Bernd Schimmelpfennig,    Forschungszentrum Karlsruhe,  Germany     (AMFI module)
  Kristian Sneskov,         Aarhus University,            Denmark     (Polarizable embedding model, QM/MM)
  Arnfinn H. Steindal,      UiT The Arctic U. of Norway,  Norway      (parallel QM/MM, Polarizable embedding model)
  Casper Steinmann,         Univ. of Southern Denmark,    Denmark     (QFIT, Polarizable embedding model)
  K. O. Sylvester-Hvid,     University of Copenhagen,     Denmark     (MC-SCRF)
  Peter R. Taylor,          VLSCI/Univ. of Melbourne,     Australia   (Symmetry handling ABACUS, integral transformation)
  Andrew M. Teale,          University of Nottingham,     England     (DFT-AC, DFT-D)
  David P. Tew,             University of Bristol,        England     (CCSD(R12))
  Olav Vahtras,             KTH Stockholm,                Sweden      (triplet response, spin-orbit, ESR, TDDFT, open-shell DFT)
  Lucas Visscher,           Vrije Universiteit Amsterdam, Netherlands (Frozen density embedding model)
  David J. Wilson,          La Trobe University,          Australia   (DFT Hessian and DFT magnetizabilities)
  Hans Agren,               KTH Stockholm,                Sweden      (SIRIUS module, RESPONS, MC-SCRF solvation model)
 --------------------------------------------------------------------------------

     Date and time (Linux)  : Thu May  7 18:48:40 2020
     Host name              : s73p19.deic.sdu.dk                      

 * Work memory size             :   307200000 =  2.289 gigabytes.

 * Directories for basis set searches:
   1) /home/salvatore/ECD/R-BINOL/gas/rizzo/alanine
   2) /gpfs/gss1/work/sdujk/foeroyingur/Programs/dalton/build/pe/develop/basis


Compilation information
-----------------------

 Who compiled             | foeroyingur
 Host                     | fe1.deic.sdu.dk
 System                   | Linux-3.10.0-327.36.3.el7.x86_64
 CMake generator          | Unix Makefiles
 Processor                | x86_64
 64-bit integers          | OFF
 MPI                      | ON
 Fortran compiler         | /opt/sys/apps/intel/2018.05/impi_latest/intel64/bi
                          | n/mpiifort
 Fortran compiler version | unknown
 C compiler               | /opt/sys/apps/intel/2018.05/impi_latest/intel64/bi
                          | n/mpiicc
 C compiler version       | unknown
 C++ compiler             | /opt/sys/apps/intel/2018.05/impi_latest/intel64/bi
                          | n/mpiicpc
 C++ compiler version     | unknown
 Static linking           | OFF
 Last Git revision        | c988ec84aab2c775c476a86e7d3049a3f15e3f66
 Git branch               | pe/develop
 Configuration time       | 2019-09-25 16:51:26.133160

 * MPI parallel run using 96 processes.


   Content of the .dal input file
 ----------------------------------

**DALTON INPUT
.DIRECT
.RUN RESPONSE
**WAVE fUNCTIONS
.DFT
B3LYP
**INTEGRAL
.ANGMOM
.ROTSTR
.DIPVEL
**RESPONSE
*QUADRATIC
.TPCD
.ROOTS
30
**END OF DALTON INPUT


   Content of the .mol file
 ----------------------------

BASIS
aug-cc-pVDZ
alan.log
Generated by Open Babel. Check overall charge below.
AtomTypes=8 Charge=0 NoSymmetry Angstrom
Charge=7.0 Atoms=1
N            -1.4065590000   -1.0581130000   -0.4957710000
Charge=6.0 Atoms=2
C            -0.6358830000    0.1734430000   -0.4141060000
C             0.7950200000   -0.1884950000   -0.0002070000
Charge=8.0 Atoms=1
O             1.0671650000   -1.1507260000    0.6742430000
Charge=1.0 Atoms=2
H            -1.0925260000   -1.6816220000    0.2452920000
H            -0.6002360000    0.6378890000   -1.4127940000
Charge=6.0 Atoms=1
C            -1.1799550000    1.2210560000    0.5849670000
Charge=1.0 Atoms=4
H            -2.2023030000    1.5006620000    0.3111490000
H            -1.1923500000    0.8049410000    1.5969920000
H            -0.5750830000    2.1348420000    0.5967980000
H            -2.3948890000   -0.8703110000   -0.3549270000
Charge=8.0 Atoms=1
O             1.7625790000    0.6855330000   -0.3722630000
Charge=1.0 Atoms=1
H             1.3902580000    1.3659080000   -0.9518740000


       *******************************************************************
       *********** Output from DALTON general input processing ***********
       *******************************************************************

 --------------------------------------------------------------------------------
   Overall default print level:    0
   Print level for DALTON.STAT:    1

    Parallel calculation using MPI
    AO-direct calculation (in sections where implemented)
    HERMIT 1- and 2-electron integral sections will be executed
    "Old" integral transformation used (limited to max 255 basis functions)
    Wave function sections will be executed (SIRIUS module)
    Dynamic molecular response properties section will be executed (RESPONSE module)
 --------------------------------------------------------------------------------


   ****************************************************************************
   *************** Output of molecule and basis set information ***************
   ****************************************************************************


    The two title cards from your ".mol" input:
    ------------------------------------------------------------------------
 1: alan.log                                                                
 2: Generated by Open Babel. Check overall charge below.                    
    ------------------------------------------------------------------------

  Coordinates are entered in Angstrom and converted to atomic units.
          - Conversion factor : 1 bohr = 0.52917721 A

  Atomic type no.    1
  --------------------
  Nuclear charge:   7.00000
  Number of symmetry independent centers:    1
  Number of basis sets to read;    2
  Basis set file used for this atomic type with Z =   7 :
     "/gpfs/gss1/work/sdujk/foeroyingur/Programs/dalton/build/pe/develop/basis/aug-cc-pVDZ"

  Atomic type no.    2
  --------------------
  Nuclear charge:   6.00000
  Number of symmetry independent centers:    2
  Number of basis sets to read;    2
  Basis set file used for this atomic type with Z =   6 :
     "/gpfs/gss1/work/sdujk/foeroyingur/Programs/dalton/build/pe/develop/basis/aug-cc-pVDZ"

  Atomic type no.    3
  --------------------
  Nuclear charge:   8.00000
  Number of symmetry independent centers:    1
  Number of basis sets to read;    2
  Basis set file used for this atomic type with Z =   8 :
     "/gpfs/gss1/work/sdujk/foeroyingur/Programs/dalton/build/pe/develop/basis/aug-cc-pVDZ"

  Atomic type no.    4
  --------------------
  Nuclear charge:   1.00000
  Number of symmetry independent centers:    2
  Number of basis sets to read;    2
  Basis set file used for this atomic type with Z =   1 :
     "/gpfs/gss1/work/sdujk/foeroyingur/Programs/dalton/build/pe/develop/basis/aug-cc-pVDZ"

  Atomic type no.    5
  --------------------
  Nuclear charge:   6.00000
  Number of symmetry independent centers:    1
  Number of basis sets to read;    2
  Basis set file used for this atomic type with Z =   6 :
     "/gpfs/gss1/work/sdujk/foeroyingur/Programs/dalton/build/pe/develop/basis/aug-cc-pVDZ"

  Atomic type no.    6
  --------------------
  Nuclear charge:   1.00000
  Number of symmetry independent centers:    4
  Number of basis sets to read;    2
  Basis set file used for this atomic type with Z =   1 :
     "/gpfs/gss1/work/sdujk/foeroyingur/Programs/dalton/build/pe/develop/basis/aug-cc-pVDZ"

  Atomic type no.    7
  --------------------
  Nuclear charge:   8.00000
  Number of symmetry independent centers:    1
  Number of basis sets to read;    2
  Basis set file used for this atomic type with Z =   8 :
     "/gpfs/gss1/work/sdujk/foeroyingur/Programs/dalton/build/pe/develop/basis/aug-cc-pVDZ"

  Atomic type no.    8
  --------------------
  Nuclear charge:   1.00000
  Number of symmetry independent centers:    1
  Number of basis sets to read;    2
  Basis set file used for this atomic type with Z =   1 :
     "/gpfs/gss1/work/sdujk/foeroyingur/Programs/dalton/build/pe/develop/basis/aug-cc-pVDZ"


                         SYMGRP: Point group information
                         -------------------------------

@    Point group: C1 


                                 Isotopic Masses
                                 ---------------

                           N          14.003074
                           C          12.000000
                           C          12.000000
                           O          15.994915
                           H           1.007825
                           H           1.007825
                           C          12.000000
                           H           1.007825
                           H           1.007825
                           H           1.007825
                           H           1.007825
                           O          15.994915
                           H           1.007825

                       Total mass:    89.047679 amu
                       Natural abundance:  95.816 %

 Center-of-mass coordinates (a.u.):    0.139982   -0.081973   -0.000710


  Atoms and basis sets
  --------------------

  Number of atom types :    8
  Total number of atoms:   13

  Basis set used is "aug-cc-pVDZ" from the basis set library.

  label    atoms   charge   prim   cont     basis
  ----------------------------------------------------------------------
  N           1    7.0000    35    23      [10s5p2d|4s3p2d]                                   
  C           2    6.0000    35    23      [10s5p2d|4s3p2d]                                   
  O           1    8.0000    35    23      [10s5p2d|4s3p2d]                                   
  H           2    1.0000    11     9      [5s2p|3s2p]                                        
  C           1    6.0000    35    23      [10s5p2d|4s3p2d]                                   
  H           4    1.0000    11     9      [5s2p|3s2p]                                        
  O           1    8.0000    35    23      [10s5p2d|4s3p2d]                                   
  H           1    1.0000    11     9      [5s2p|3s2p]                                        
  ----------------------------------------------------------------------
  total:     13   48.0000   287   201
  ----------------------------------------------------------------------
  Spherical harmonic basis used.

  Threshold for neglecting AO integrals:  1.00D-12


   Interatomic separations (in Angstrom):
   --------------------------------------

            N           C           C           O           H           H     
            ------      ------      ------      ------      ------      ------
 N     :    0.000000
 C     :    1.455109    0.000000
 C     :    2.418423    1.532904    0.000000
 O     :    2.738032    2.416257    1.206165    0.000000
 H     :    1.018113    2.021038    2.419200    2.264976    0.000000
 H     :    2.089859    1.101979    2.150593    3.214824    2.893394    0.000000
 C     :    2.532579    1.546497    2.495955    3.268466    2.923792    2.160372
 H     :    2.798510    2.177424    3.454582    4.225058    3.370886    2.506586
 H     :    2.810073    2.180129    2.736348    3.127540    2.831970    3.072022
 H     :    3.475632    2.207421    2.762516    3.673953    3.867389    2.505985
 H     :    1.015826    2.046223    3.281192    3.622657    1.647616    2.571873
 O     :    3.619253    2.452877    1.355921    2.224999    3.759843    2.582222
 H     :    3.729087    2.411724    1.917328    3.013651    4.109119    2.168992

            C           H           H           H           H           O     
            ------      ------      ------      ------      ------      ------
 C     :    0.000000
 H     :    1.094692    0.000000
 H     :    1.094303    1.776914    0.000000
 H     :    1.095908    1.769640    1.774836    0.000000
 H     :    2.594857    2.470275    2.839464    3.639838    0.000000
 O     :    3.140315    4.105092    3.553003    2.916203    4.439087    0.000000
 H     :    2.998142    3.810496    3.671684    2.617673    4.436706    0.968237

            H     
            ------
 H     :    0.000000


  Max    interatomic separation is    4.4391 Angstrom (    8.3887 Bohr)
  between atoms   12 and   11, "O     " and "H     ".

  Min HX interatomic separation is    0.9682 Angstrom (    1.8297 Bohr)

  Min YX interatomic separation is    1.2062 Angstrom (    2.2793 Bohr)


  Bond distances (Angstrom):
  --------------------------

                  atom 1     atom 2       distance
                  ------     ------       --------
  bond distance:  C          N            1.455109
  bond distance:  C          C            1.532904
  bond distance:  O          C            1.206165
  bond distance:  H          N            1.018113
  bond distance:  H          C            1.101979
  bond distance:  C          C            1.546497
  bond distance:  H          C            1.094692
  bond distance:  H          C            1.094303
  bond distance:  H          C            1.095908
  bond distance:  H          N            1.015826
  bond distance:  O          C            1.355921
  bond distance:  H          O            0.968237


  Bond angles (degrees):
  ----------------------

                  atom 1     atom 2     atom 3         angle
                  ------     ------     ------         -----
  bond angle:     C          N          H            108.307
  bond angle:     C          N          H            110.551
  bond angle:     H          N          H            108.204
  bond angle:     N          C          C            108.042
  bond angle:     N          C          H            108.844
  bond angle:     N          C          C            115.041
  bond angle:     C          C          H            108.302
  bond angle:     C          C          C            108.295
  bond angle:     H          C          C            108.140
  bond angle:     C          C          O            123.364
  bond angle:     C          C          O            116.092
  bond angle:     O          C          O            120.442
  bond angle:     C          C          H            109.876
  bond angle:     C          C          H            110.111
  bond angle:     C          C          H            112.187
  bond angle:     H          C          H            108.534
  bond angle:     H          C          H            107.770
  bond angle:     H          C          H            108.260
  bond angle:     C          O          H            110.049




 Principal moments of inertia (u*A**2) and principal axes
 --------------------------------------------------------

   IA     101.468615          0.999690    0.005123    0.024368
   IB     165.439521         -0.004778    0.999888   -0.014170
   IC     216.599470         -0.024438    0.014049    0.999603


 Rotational constants
 --------------------

               A                   B                   C

           4980.6436           3054.7659           2333.2421 MHz
            0.166136            0.101896            0.077829 cm-1


@  Nuclear repulsion energy :  249.216512314893 Hartree


                     .---------------------------------------.
                     | Starting in Integral Section (HERMIT) |
                     `---------------------------------------'



 ***************************************************************************************
 ****************** Output from **INTEGRALS input processing (HERMIT) ******************
 ***************************************************************************************



    *************************************************************************
    ****************** Output from HERMIT input processing ******************
    *************************************************************************


 Default print level:        1

 Calculation of one-electron Hamiltonian integrals.

 The following one-electron property integrals are calculated as requested:
          - overlap integrals
          - dipole velocity integrals
          - electronic angular momentum around the origin
          - Rotational strength integrals

 Center of mass  (bohr):      0.139982372752     -0.081973231573     -0.000709856117
 Operator center (bohr):      0.000000000000      0.000000000000      0.000000000000
 Gauge origin    (bohr):      0.000000000000      0.000000000000      0.000000000000
 Dipole origin   (bohr):      0.000000000000      0.000000000000      0.000000000000


     ************************************************************************
     ************************** Output from HERINT **************************
     ************************************************************************



                      Nuclear contribution to dipole moments
                      --------------------------------------

                 au               Debye          C m (/(10**-30)

      x      0.00000378         0.00000961         0.00003204
      y     -0.00000378        -0.00000961        -0.00003204
      z      0.00000567         0.00001441         0.00004807


  Time used in GABGEN     is       0.13 seconds
  Total CPU  time used in HERMIT:   0.53 seconds
  Total wall time used in HERMIT:   0.68 seconds


                        .----------------------------------.
                        | End of Integral Section (HERMIT) |
                        `----------------------------------'



                   .--------------------------------------------.
                   | Starting in Wave Function Section (SIRIUS) |
                   `--------------------------------------------'


 *** Output from Huckel module :

     Using EWMO model:          T
     Using EHT  model:          F
     Number of Huckel orbitals each symmetry:   37

 EWMO - Energy Weighted Maximum Overlap - is a Huckel type method,
        which normally is better than Extended Huckel Theory.
 Reference: Linderberg and Ohrn, Propagators in Quantum Chemistry (Wiley, 1973)

 Huckel EWMO eigenvalues for symmetry :  1
          -20.685839     -20.684258     -15.674048     -11.356822     -11.351183
          -11.347677      -1.996045      -1.690978      -1.534153      -1.351460
           -1.080592      -0.919177      -0.837632      -0.780817      -0.723617
           -0.667867      -0.627480      -0.607544      -0.590642      -0.583428
           -0.562349      -0.510641      -0.439347      -0.419217      -0.268913
           -0.222557      -0.187445      -0.162688      -0.153640      -0.147971
           -0.141320      -0.132290      -0.127099      -0.122632      -0.118393
           -0.113851      -0.107988

 **********************************************************************
 *SIRIUS* a direct, restricted step, second order MCSCF program       *
 **********************************************************************

 
     Date and time (Linux)  : Thu May  7 18:48:42 2020
     Host name              : s73p19.deic.sdu.dk                      

 Title lines from ".mol" input file:
     alan.log                                                                
     Generated by Open Babel. Check overall charge below.                    

 Print level on unit LUPRI =   2 is   0
 Print level on unit LUW4  =   2 is   5

@    Restricted, closed shell Kohn-Sham DFT calculation.

@    Time-dependent Kohn-Sham DFT calculation (TD-DFT).
 Fock matrices are calculated directly and in parallel without use of integrals on disk.

 Initial molecular orbitals are obtained according to
 ".MOSTART EWMO  " input option

     Wave function specification
     ============================
@    Wave function type        --- KS-DFT ---
@    Number of closed shell electrons          48
@    Number of electrons in active shells       0
@    Total charge of the molecule               0

@    Spin multiplicity and 2 M_S                1         0
@    Total number of symmetries                 1 (point group: C1 )
@    Reference state symmetry                   1 (irrep name : A  )
 
     This is a DFT calculation of type: B3LYP
 Weighted mixed functional:
               HF exchange:    0.20000
                       VWN:    0.19000
                       LYP:    0.81000
                     Becke:    0.72000
                    Slater:    0.80000

     Orbital specifications
     ======================
@    Abelian symmetry species          All |    1
@                                          |  A  
                                       --- |  ---
@    Occupied SCF orbitals              24 |   24
@    Secondary orbitals                177 |  177
@    Total number of orbitals          201 |  201
@    Number of basis functions         201 |  201

     Optimization information
     ========================
@    Number of configurations                 1
@    Number of orbital rotations           4248
     ------------------------------------------
@    Total number of variables             4249

     Maximum number of Fock   iterations      0
     Maximum number of DIIS   iterations     60
     Maximum number of QC-SCF iterations     60
     Threshold for SCF convergence     1.00D-05
 
     This is a DFT calculation of type: B3LYP
 Weighted mixed functional:
               HF exchange:    0.20000
                       VWN:    0.19000
                       LYP:    0.81000
                     Becke:    0.72000
                    Slater:    0.80000


 ***********************************************
 ***** DIIS acceleration of SCF iterations *****
 ***********************************************

 C1-DIIS algorithm; max error vectors =    8

 Iter      Total energy        Error norm    Delta(E)  DIIS dim.
 -----------------------------------------------------------------------------
   1  Screening settings (-IFTHRS, JTDIIS, DIFDEN, times)   -8    1    F  1.03D+00  1.03D+00
      K-S energy, electrons, error :    -34.225412655137  48.0000883738    8.84D-05
@  1    -322.367470643        4.51325D+00   -3.22D+02    1
      Virial theorem: -V/T =      2.006071
@    MULPOP   N      -0.54; C       0.22; C       1.53; O      -1.12; H       0.12; H      -0.13; C       0.35; H      -0.02; H      -0.05; H      -0.02; 
@             H       0.09; O      -0.68; H       0.25; 
   1  Level shift: doubly occupied orbital energies shifted by -2.00D-01
 -----------------------------------------------------------------------------
   2  Screening settings (-IFTHRS, JTDIIS, DIFDEN, times)   -8    2    F  3.60D-01  3.61D-01
      K-S energy, electrons, error :    -34.605078012427  48.0000703106    7.03D-05
@  2    -322.247469618        5.32186D+00    1.20D-01    2
      Virial theorem: -V/T =      2.001871
@    MULPOP   N       0.04; C      -0.09; C      -0.85; O       1.06; H       0.04; H      -0.44; C       0.68; H      -0.16; H      -0.06; H      -0.18; 
@             H      -0.01; O      -0.08; H       0.06; 
   2  Level shift: doubly occupied orbital energies shifted by -2.00D-01
 -----------------------------------------------------------------------------
   3  Screening settings (-IFTHRS, JTDIIS, DIFDEN, times)   -8    3    F  2.29D-01  2.29D-01
      K-S energy, electrons, error :    -34.774040021247  48.0000674353    6.74D-05
@  3    -323.562748435        9.29134D-01   -1.32D+00    3
      Virial theorem: -V/T =      2.001339
@    MULPOP   N      -0.10; C       0.33; C       0.88; O      -0.56; H      -0.02; H      -0.52; C       0.81; H      -0.22; H      -0.12; H      -0.23; 
@             H      -0.04; O      -0.35; H       0.13; 
   3  Level shift: doubly occupied orbital energies shifted by -5.00D-02
 -----------------------------------------------------------------------------
   4  Screening settings (-IFTHRS, JTDIIS, DIFDEN, times)   -9    4    F  2.28D-01  2.29D-01
      K-S energy, electrons, error :    -34.526815557061  48.0000668204    6.68D-05
@  4    -323.592738036        6.32521D-01   -3.00D-02    4
      Virial theorem: -V/T =      2.007429
@    MULPOP   N      -0.11; C       0.60; C       0.85; O      -0.47; H      -0.06; H      -0.59; C       1.17; H      -0.33; H      -0.22; H      -0.35; 
@             H      -0.09; O      -0.54; H       0.15; 
   4  Level shift: doubly occupied orbital energies shifted by -5.00D-02
 -----------------------------------------------------------------------------
   5  Screening settings (-IFTHRS, JTDIIS, DIFDEN, times)   -9    5    F  2.22D-01  2.23D-01
      K-S energy, electrons, error :    -34.571451439136  48.0000667480    6.67D-05
@  5    -323.611945171        1.79016D-01   -1.92D-02    5
      Virial theorem: -V/T =      2.006451
@    MULPOP   N      -0.11; C       0.51; C       0.89; O      -0.58; H      -0.04; H      -0.56; C       1.09; H      -0.31; H      -0.20; H      -0.33; 
@             H      -0.08; O      -0.42; H       0.12; 
   5  Level shift: doubly occupied orbital energies shifted by -2.50D-02
 -----------------------------------------------------------------------------
   6  Screening settings (-IFTHRS, JTDIIS, DIFDEN, times)  -10    6    F  2.25D-01  2.25D-01
      K-S energy, electrons, error :    -34.610329086203  48.0000665219    6.65D-05
@  6    -323.613279827        5.74283D-02   -1.33D-03    6
      Virial theorem: -V/T =      2.005461
@    MULPOP   N      -0.12; C       0.52; C       0.88; O      -0.56; H      -0.04; H      -0.55; C       1.06; H      -0.30; H      -0.19; H      -0.32; 
@             H      -0.07; O      -0.46; H       0.14; 
   6  Level shift: doubly occupied orbital energies shifted by -1.25D-02
 -----------------------------------------------------------------------------
   7  Screening settings (-IFTHRS, JTDIIS, DIFDEN, times)  -10    7    F  2.24D-01  2.24D-01
      K-S energy, electrons, error :    -34.597472676956  48.0000666481    6.66D-05
@  7    -323.613438541        9.03181D-03   -1.59D-04    7
      Virial theorem: -V/T =      2.005785
@    MULPOP   N      -0.12; C       0.52; C       0.87; O      -0.55; H      -0.04; H      -0.55; C       1.07; H      -0.30; H      -0.19; H      -0.33; 
@             H      -0.07; O      -0.45; H       0.14; 
 -----------------------------------------------------------------------------
   8  Screening settings (-IFTHRS, JTDIIS, DIFDEN, times)  -11    8    F  2.24D-01  2.24D-01
      K-S energy, electrons, error :    -34.597214109021  48.0000666591    6.67D-05
@  8    -323.613441967        4.51342D-03   -3.43D-06    8
      Virial theorem: -V/T =      2.005795
@    MULPOP   N      -0.12; C       0.52; C       0.87; O      -0.55; H      -0.04; H      -0.55; C       1.07; H      -0.30; H      -0.19; H      -0.32; 
@             H      -0.07; O      -0.45; H       0.14; 
 -----------------------------------------------------------------------------
   9  Screening settings (-IFTHRS, JTDIIS, DIFDEN, times)  -11    9    F  2.51D-01  2.52D-01
      K-S energy, electrons, error :    -34.597723848499  48.0000666439    6.66D-05
@  9    -323.613443095        8.14851D-04   -1.13D-06    8
      Virial theorem: -V/T =      2.005781
@    MULPOP   N      -0.12; C       0.52; C       0.87; O      -0.55; H      -0.04; H      -0.55; C       1.07; H      -0.30; H      -0.19; H      -0.32; 
@             H      -0.07; O      -0.45; H       0.14; 
 -----------------------------------------------------------------------------
  10  Screening settings (-IFTHRS, JTDIIS, DIFDEN, times)  -12   10    F  2.62D-01  2.62D-01
      K-S energy, electrons, error :    -34.597637218462  48.0000666477    6.66D-05
@ 10    -323.613443128        3.00165D-04   -3.32D-08    8
      Virial theorem: -V/T =      2.005783
@    MULPOP   N      -0.12; C       0.52; C       0.87; O      -0.55; H      -0.04; H      -0.55; C       1.07; H      -0.30; H      -0.19; H      -0.32; 
@             H      -0.07; O      -0.45; H       0.14; 
 -----------------------------------------------------------------------------
  11  Screening settings (-IFTHRS, JTDIIS, DIFDEN, times)  -12   11    F  2.71D-01  2.71D-01
      K-S energy, electrons, error :    -34.597661404564  48.0000666473    6.66D-05
@ 11    -323.613443133        6.45251D-05   -4.69D-09    8
      Virial theorem: -V/T =      2.005783
@    MULPOP   N      -0.12; C       0.52; C       0.87; O      -0.55; H      -0.04; H      -0.55; C       1.07; H      -0.30; H      -0.19; H      -0.32; 
@             H      -0.07; O      -0.45; H       0.14; 
 -----------------------------------------------------------------------------
  12  Screening settings (-IFTHRS, JTDIIS, DIFDEN, times)  -12   12    F  2.90D-01  2.90D-01
      K-S energy, electrons, error :    -34.597657643876  48.0000666475    6.66D-05
@ 12    -323.613443133        2.48191D-05   -2.31D-10    8
      Virial theorem: -V/T =      2.005783
@    MULPOP   N      -0.12; C       0.52; C       0.87; O      -0.55; H      -0.04; H      -0.55; C       1.07; H      -0.30; H      -0.19; H      -0.32; 
@             H      -0.07; O      -0.45; H       0.14; 
 -----------------------------------------------------------------------------
  13  Screening settings (-IFTHRS, JTDIIS, DIFDEN, times)  -12   13    F  2.38D-01  2.38D-01
      K-S energy, electrons, error :    -34.597658258034  48.0000666475    6.66D-05
@ 13    -323.613443133        5.38749D-06   -3.38D-11    8

@ *** DIIS converged in  13 iterations !
@     Converged SCF energy, gradient:   -323.613443133323    5.39D-06
    - total time used in SIRFCK :              0.00 seconds


 *** SCF orbital energy analysis ***

 Only the 20 lowest virtual orbital energies printed in each symmetry.

 Number of electrons :   48
 Orbital occupations :   24

 Sym       Kohn-Sham orbital energies

1 A     -19.20909319   -19.14704627   -14.32399198   -10.32748843   -10.24621757
        -10.20169023    -1.11927194    -1.03855567    -0.90638352    -0.76314867
         -0.67085379    -0.62548082    -0.54789044    -0.49029157    -0.47857075
         -0.46543903    -0.44348899    -0.42063148    -0.41530299    -0.38329890
         -0.38133112    -0.33494340    -0.29012375    -0.25780896    -0.02826655
         -0.01169205    -0.00610864     0.00898496     0.01839517     0.03573954
          0.03853798     0.04899389     0.05294135     0.05955482     0.07250169
          0.08314065     0.09349690     0.09861073     0.10450402     0.10942907
          0.11532530     0.12034139     0.12170252     0.13225380

    E(LUMO) :    -0.02826655 au (symmetry 1)
  - E(HOMO) :    -0.25780896 au (symmetry 1)
  ------------------------------------------
    gap     :     0.22954241 au

 --- Writing SIRIFC interface file

 CPU and wall time for SCF :       7.542       7.649


                       .-----------------------------------.
                       | --- Final results from SIRIUS --- |
                       `-----------------------------------'


@    Spin multiplicity:           1
@    Spatial symmetry:            1 ( irrep  A   in C1  )
@    Total charge of molecule:    0

@    Final DFT energy:           -323.613443133323                 
@    Nuclear repulsion:           249.216512314893
@    Electronic energy:          -572.829955448215

@    Final gradient norm:           0.000005387490

 
     Date and time (Linux)  : Thu May  7 18:48:49 2020
     Host name              : s73p19.deic.sdu.dk                      

File label for MO orbitals:   7May20   FOCKDIIS

 (Only coefficients > 0.0100 are printed.)

 Molecular orbitals for symmetry species 1  (A  )
 ------------------------------------------------

    Orbital        15       16       17       18       19       20       21
   2 N   :1s    -0.0632  -0.0008   0.0479   0.1289  -0.0324  -0.0438   0.0274
   3 N   :1s     0.0096   0.0261  -0.0461   0.0526  -0.0085   0.0149  -0.0185
   4 N   :1s    -0.0100  -0.0083  -0.0158  -0.0359  -0.0131  -0.0217  -0.1582
   5 N   :2px   -0.2241  -0.2809   0.0920   0.0755  -0.1849  -0.2204   0.1063
   6 N   :2py    0.1775   0.1324  -0.2353   0.2645  -0.0337   0.0888   0.2853
   7 N   :2pz    0.0044  -0.1352   0.0461  -0.2861   0.0057  -0.0937   0.0513
   8 N   :2px    0.0655   0.1076  -0.0442   0.0077   0.0421   0.0785  -0.0370
   9 N   :2py   -0.0381  -0.0447   0.0643  -0.0484   0.0190  -0.0321  -0.0395
  10 N   :2pz    0.0258   0.0290  -0.0176   0.0541   0.0062   0.0344   0.0375
  12 N   :2py    0.0102  -0.0003  -0.0236  -0.0137  -0.0053  -0.0011  -0.0200
  13 N   :2pz    0.0092  -0.0052  -0.0033  -0.0202   0.0176  -0.0000  -0.0120
  15 N   :3d1-   0.0103   0.0048  -0.0092   0.0019   0.0016   0.0054   0.0120
  18 N   :3d2+   0.0010   0.0071  -0.0017   0.0014   0.0038   0.0110  -0.0051
  19 N   :3d2-  -0.0027   0.0040   0.0076  -0.0084   0.0030   0.0012  -0.0173
  20 N   :3d1-  -0.0028  -0.0217   0.0122  -0.0127   0.0001  -0.0116   0.0183
  21 N   :3d0    0.0113   0.0134  -0.0105   0.0014  -0.0008   0.0100   0.0050
  22 N   :3d1+   0.0078   0.0137  -0.0068   0.0147   0.0020   0.0182   0.0108
  23 N   :3d2+  -0.0144  -0.0152  -0.0024  -0.0046  -0.0141  -0.0071  -0.0080
  25 C   :1s     0.1036  -0.1067   0.0235  -0.0799   0.0849  -0.0194   0.0211
  26 C   :1s    -0.0013  -0.0722  -0.1013   0.0248  -0.0773   0.1914   0.0915
  27 C   :1s     0.0456   0.0407  -0.1384  -0.0771  -0.0915   0.1436   0.4984
  28 C   :2px   -0.0956   0.0395   0.0312   0.0328   0.0729   0.2744  -0.2382
  29 C   :2py    0.0739  -0.0611   0.1842  -0.3539   0.1484  -0.1442  -0.1506
  30 C   :2pz    0.2975  -0.0460  -0.1486  -0.2285   0.0879   0.0885   0.3636
  31 C   :2px   -0.0251  -0.1732   0.0483   0.0048   0.0444  -0.0547   0.0914
  32 C   :2py    0.0628   0.1704  -0.1008   0.1372  -0.0478   0.0993   0.0302
  33 C   :2pz   -0.0999  -0.0602   0.0530   0.0773   0.0339  -0.0742  -0.2751
  34 C   :2px   -0.0081  -0.0416  -0.0452  -0.0251   0.0202   0.0322  -0.0448
  35 C   :2py   -0.0056   0.0266   0.0432  -0.0125  -0.0324  -0.0130   0.0124
  36 C   :2pz    0.0002   0.0441  -0.0062  -0.0147  -0.0787   0.0155   0.0832
  37 C   :3d2-   0.0077  -0.0047  -0.0054   0.0191  -0.0001  -0.0082   0.0099
  38 C   :3d1-   0.0047   0.0010  -0.0057   0.0071   0.0062  -0.0006   0.0125
  39 C   :3d0    0.0054  -0.0018   0.0040  -0.0028   0.0099  -0.0134  -0.0217
  40 C   :3d1+   0.0071   0.0021   0.0056   0.0137  -0.0027   0.0088   0.0027
  41 C   :3d2+   0.0097   0.0112  -0.0167  -0.0038   0.0006   0.0185  -0.0102
  42 C   :3d2-   0.0174   0.0095  -0.0011   0.0036   0.0150  -0.0373   0.0183
  43 C   :3d1-   0.0158   0.0255   0.0003   0.0450   0.0040   0.0335  -0.0231
  44 C   :3d0    0.0279   0.0075  -0.0550   0.0329   0.0237  -0.0070  -0.0039
  45 C   :3d1+  -0.0199  -0.0957   0.0661  -0.0012   0.0310  -0.0427   0.0531
  46 C   :3d2+   0.0023   0.0180  -0.0582  -0.0173  -0.0237   0.0099  -0.0543
  48 C   :1s     0.0307   0.3253   0.0065  -0.0119  -0.0815   0.0472   0.0029
  49 C   :1s     0.0498   0.1953  -0.0170   0.0314  -0.0479  -0.0220   0.0044
  50 C   :1s     0.0174   0.2206   0.2069   0.0848  -0.0755  -0.1917  -0.0659
  51 C   :2px   -0.1002  -0.0241   0.0240  -0.0195  -0.0316  -0.4083   0.1005
  52 C   :2py    0.1090  -0.3755  -0.1682   0.1019  -0.1603   0.0858  -0.0007
  53 C   :2pz    0.3836   0.0391   0.2820   0.0682  -0.1811  -0.1522  -0.0691
  54 C   :2px   -0.0423  -0.1628   0.0462   0.0042   0.0177   0.1385  -0.0307
  55 C   :2py   -0.0404   0.1047   0.0965  -0.0435   0.0410  -0.0229   0.0144
  56 C   :2pz   -0.0955  -0.0067  -0.1098  -0.0268   0.0028   0.0769  -0.0062
  57 C   :2px   -0.0003  -0.0279  -0.0476  -0.0060   0.0079   0.0021   0.0224
  58 C   :2py    0.0089   0.0149  -0.0299   0.0104  -0.0083  -0.0279   0.0052
  59 C   :2pz   -0.0002  -0.0073   0.0057  -0.0077   0.0296   0.0051   0.0006
  60 C   :3d2-  -0.0018  -0.0139  -0.0107   0.0129  -0.0161   0.0138   0.0046
  61 C   :3d1-   0.0028  -0.0150   0.0004   0.0032   0.0106   0.0171   0.0009
  63 C   :3d1+   0.0051   0.0012   0.0157   0.0114  -0.0059  -0.0075  -0.0173
  64 C   :3d2+   0.0025  -0.0130  -0.0004  -0.0002   0.0145   0.0134  -0.0019
  65 C   :3d2-   0.0085   0.0210  -0.0157   0.0032  -0.0132   0.0139   0.0050
  66 C   :3d1-   0.0272   0.0327  -0.0209  -0.0057   0.0026  -0.0193  -0.0019
  67 C   :3d0   -0.0184  -0.0329   0.0129   0.0021   0.0090  -0.0046  -0.0030
  68 C   :3d1+  -0.0088  -0.0065   0.0089   0.0111   0.0250  -0.0286  -0.0045
  69 C   :3d2+   0.0408   0.0713  -0.0207   0.0059  -0.0031  -0.0285  -0.0046
  71 O   :1s    -0.0621  -0.2924  -0.1565   0.0374   0.0144   0.0566   0.0161
  72 O   :1s    -0.0060  -0.1015  -0.0646   0.0107   0.0245   0.0320   0.0134
  73 O   :1s    -0.0122  -0.1516  -0.1270   0.0059   0.0382   0.0835   0.0133
  74 O   :2px   -0.0770  -0.1500  -0.0734   0.0260   0.0561  -0.2616   0.0775
  75 O   :2py    0.2455   0.3797   0.3133   0.0211  -0.1602  -0.3217  -0.0643
  76 O   :2pz    0.1689  -0.4147  -0.0955   0.1360  -0.1531   0.1268  -0.0836
  77 O   :2px    0.0141   0.0398   0.0010  -0.0041  -0.0132   0.0055   0.0029
  78 O   :2py   -0.0272  -0.0871  -0.0507   0.0063   0.0175   0.0509   0.0121
  79 O   :2pz    0.0032   0.0698   0.0276  -0.0113   0.0009  -0.0294   0.0024
  80 O   :2px    0.0007   0.0123  -0.0023   0.0004  -0.0094  -0.0142   0.0090
  82 O   :2pz    0.0095  -0.0079   0.0036   0.0093  -0.0151  -0.0011  -0.0087
  84 O   :3d1-   0.0010  -0.0152  -0.0062   0.0028  -0.0019   0.0072  -0.0015
  88 O   :3d2-  -0.0013   0.0036  -0.0029  -0.0034  -0.0002  -0.0109   0.0029
  93 H   :1s    -0.2173  -0.2842   0.2406  -0.3048  -0.0483  -0.2178  -0.1305
  94 H   :1s     0.0392   0.0365  -0.0321   0.0863   0.0157   0.0166   0.0019
  95 H   :1s     0.0024  -0.0014  -0.0122  -0.0011  -0.0081  -0.0117  -0.0004
  99 H   :2px    0.0049   0.0072  -0.0074   0.0132   0.0029   0.0125  -0.0002
 100 H   :2py   -0.0081  -0.0117   0.0171   0.0000   0.0060  -0.0069  -0.0104
 101 H   :2pz    0.0072   0.0106  -0.0083   0.0051  -0.0011   0.0131   0.0107
 102 H   :1s    -0.1729  -0.0413   0.2234   0.0034   0.0314  -0.1791  -0.4362
 103 H   :1s    -0.0096  -0.0922   0.0297   0.0072   0.0446  -0.0789  -0.1711
 104 H   :1s    -0.0056   0.0176   0.0081  -0.0067  -0.0380   0.0009   0.0088
 108 H   :2px   -0.0080  -0.0255   0.0148  -0.0105  -0.0012  -0.0199   0.0204
 109 H   :2py    0.0173   0.0142  -0.0324   0.0125  -0.0008   0.0202   0.0174
 110 H   :2pz   -0.0083  -0.0333   0.0048   0.0039   0.0255  -0.0437  -0.0773
 112 C   :1s    -0.0812   0.0216  -0.0152  -0.0113   0.0199  -0.0262   0.0262
 113 C   :1s     0.0360  -0.1131   0.0411  -0.1662   0.0525  -0.0898   0.0888
 114 C   :1s    -0.0027  -0.1136  -0.0471   0.0135   0.1282  -0.0195  -0.2550
 115 C   :2px    0.1300  -0.1245   0.1847   0.1925   0.4593  -0.1871   0.2416
 116 C   :2py   -0.3008   0.0671   0.2900   0.3116  -0.1229   0.2246   0.1733
 117 C   :2pz   -0.0384   0.0526  -0.2405   0.3728   0.1508  -0.1250  -0.3646
 118 C   :2px   -0.0445   0.0791  -0.1193  -0.1836  -0.2429   0.1061  -0.0937
 119 C   :2py    0.1325   0.0374  -0.2078  -0.0801   0.0316  -0.0727  -0.2545
 120 C   :2pz    0.0178   0.0662   0.0684  -0.1068  -0.1299   0.1505   0.1314
 121 C   :2px   -0.0043  -0.0208  -0.0165  -0.0175  -0.0043   0.0224  -0.0254
 122 C   :2py    0.0182   0.0249  -0.0016  -0.0136  -0.0215   0.0018   0.0282
 123 C   :2pz    0.0065   0.0222   0.0070  -0.0057  -0.0287   0.0149   0.0462
 124 C   :3d2-  -0.0062  -0.0007   0.0079   0.0149   0.0057  -0.0047   0.0063
 125 C   :3d1-   0.0046  -0.0045   0.0064  -0.0093   0.0006  -0.0013   0.0120
 126 C   :3d0    0.0018  -0.0020  -0.0049  -0.0003   0.0071  -0.0138  -0.0188
 128 C   :3d2+  -0.0047   0.0039  -0.0003  -0.0067  -0.0107   0.0082  -0.0098
 129 C   :3d2-   0.0132   0.0024  -0.0447  -0.0308  -0.0139  -0.0126  -0.0390
 130 C   :3d1-   0.0024  -0.0226  -0.0047   0.0187   0.0265  -0.0347   0.0006
 131 C   :3d0   -0.0216   0.0002   0.0285  -0.0058  -0.0098   0.0116   0.0268
 132 C   :3d1+   0.0099  -0.0193   0.0244   0.0291   0.0394  -0.0141   0.0181
 133 C   :3d2+   0.0172   0.0029  -0.0232   0.0303   0.0324  -0.0293  -0.0348
 134 H   :1s    -0.2139   0.1324  -0.0484  -0.2108  -0.5052   0.2899  -0.0846
 135 H   :1s     0.0278   0.0390  -0.0383  -0.1207  -0.1129   0.0975   0.0743
 136 H   :1s    -0.0095  -0.0187  -0.0190  -0.0110  -0.0199   0.0365  -0.0105
 140 H   :2px   -0.0059   0.0241  -0.0233  -0.0410  -0.0667   0.0404   0.0107
 141 H   :2py    0.0019  -0.0128  -0.0019   0.0110   0.0247  -0.0285  -0.0140
 142 H   :2pz   -0.0098  -0.0026   0.0080  -0.0136  -0.0107   0.0088   0.0072
 143 H   :1s     0.0335   0.0273  -0.3283   0.2147   0.1951  -0.2376  -0.4367
 144 H   :1s     0.0086  -0.0828   0.0307   0.0257   0.0842  -0.1146  -0.1144
 145 H   :1s    -0.0044  -0.0129  -0.0029   0.0069   0.0188  -0.0157  -0.0383
 147 H   :2py   -0.0067   0.0019   0.0019   0.0105   0.0001   0.0027  -0.0005
 149 H   :2px   -0.0006   0.0038  -0.0097  -0.0080  -0.0066  -0.0008  -0.0142
 150 H   :2py    0.0006  -0.0023  -0.0116   0.0023   0.0072  -0.0072  -0.0186
 151 H   :2pz    0.0022   0.0213   0.0126  -0.0296  -0.0385   0.0492   0.0694
 152 H   :1s    -0.2043  -0.0062   0.3369   0.3819   0.1626   0.0673   0.3352
 153 H   :1s    -0.0053  -0.0322   0.1013   0.0930   0.0294  -0.0028   0.1804
 154 H   :1s    -0.0149  -0.0012   0.0125   0.0254   0.0214  -0.0078   0.0229
 158 H   :2px    0.0101   0.0017  -0.0163  -0.0288  -0.0158   0.0006  -0.0238
 159 H   :2py    0.0186   0.0059  -0.0473  -0.0522  -0.0108  -0.0096  -0.0704
 160 H   :2pz   -0.0044   0.0092  -0.0063  -0.0170  -0.0107   0.0072  -0.0131
 161 H   :1s     0.2203   0.3106  -0.1193   0.0007   0.1637   0.2559  -0.0611
 162 H   :1s    -0.0453  -0.0484   0.0440   0.0510  -0.0019   0.0117   0.0472
 163 H   :1s     0.0090   0.0068  -0.0025  -0.0161   0.0068   0.0133  -0.0061
 167 H   :2px    0.0069   0.0162   0.0034   0.0166   0.0159   0.0279   0.0099
 168 H   :2py   -0.0094  -0.0100   0.0135   0.0032   0.0022  -0.0007  -0.0005
 171 O   :1s     0.0505  -0.0853   0.1026  -0.0228   0.1075   0.1678  -0.0579
 172 O   :1s     0.0226  -0.0394   0.0241  -0.0092   0.0606   0.0602  -0.0361
 173 O   :1s    -0.0210  -0.1104   0.0432  -0.0326   0.1064   0.1560  -0.0441
 174 O   :2px    0.0683  -0.0067   0.3025  -0.1049   0.3979   0.3686  -0.2150
 175 O   :2py    0.2180   0.0658   0.1267   0.1300  -0.2283  -0.0704  -0.0699
 176 O   :2pz    0.2645  -0.2596   0.2280   0.1732  -0.1873   0.1705  -0.1757
 177 O   :2px   -0.0221  -0.0057  -0.0086   0.0035  -0.0230  -0.0220   0.0179
 178 O   :2py   -0.0105  -0.0273  -0.0021   0.0018   0.0037   0.0191   0.0005
 179 O   :2pz   -0.0048   0.0228  -0.0042  -0.0006  -0.0068  -0.0191   0.0046
 180 O   :2px    0.0047   0.0114   0.0192  -0.0040   0.0081   0.0130  -0.0118
 181 O   :2py    0.0136   0.0081   0.0088   0.0138  -0.0195  -0.0048  -0.0054
 182 O   :2pz    0.0159  -0.0178   0.0171   0.0122  -0.0211   0.0109  -0.0194
 188 O   :3d2-  -0.0032   0.0123  -0.0007  -0.0057   0.0068   0.0018  -0.0005
 191 O   :3d1+  -0.0121   0.0005  -0.0105  -0.0049   0.0070  -0.0025   0.0050
 192 O   :3d2+   0.0044   0.0033  -0.0118   0.0045  -0.0135  -0.0068   0.0031
 193 H   :1s    -0.0102   0.1864  -0.0837   0.0187  -0.1486  -0.2725   0.0993
 194 H   :1s     0.0424   0.0101   0.0070   0.0079   0.0299   0.0317  -0.0532
 197 H   :2py    0.0070  -0.0082   0.0099   0.0024   0.0033   0.0108  -0.0067
 198 H   :2pz    0.0061   0.0019   0.0001   0.0053  -0.0125  -0.0061   0.0018
 199 H   :2px    0.0012  -0.0104   0.0016  -0.0014   0.0053  -0.0014   0.0046
 200 H   :2py   -0.0125  -0.0228   0.0111  -0.0031  -0.0012   0.0068   0.0073
 201 H   :2pz    0.0104   0.0109  -0.0050   0.0027  -0.0008  -0.0059  -0.0065

    Orbital        22       23       24       25       26       27       28
   2 N   :1s    -0.0222  -0.0507  -0.2375   0.0214   0.0691  -0.1768   0.1093
   3 N   :1s    -0.0017  -0.0197  -0.1063   0.0187   0.0455  -0.0811   0.0202
   4 N   :1s     0.0799  -0.0105  -0.1861  -0.0066  -0.0534   0.7121  -0.1604
   5 N   :2px   -0.0260   0.0038  -0.1195  -0.0650   0.0224   0.1072  -0.0628
   6 N   :2py   -0.0062   0.0709   0.3251  -0.0295   0.0389  -0.0157  -0.0380
   7 N   :2pz    0.0068   0.0307   0.7027   0.0552   0.0089  -0.0640  -0.0368
   8 N   :2px    0.0083  -0.0157   0.0116   0.0024   0.0104   0.0013  -0.0387
   9 N   :2py   -0.0039   0.0004  -0.0010   0.0073   0.0049   0.0090  -0.0258
  10 N   :2pz   -0.0036  -0.0013  -0.0191  -0.0015  -0.0030  -0.0130  -0.0030
  11 N   :2px   -0.0016  -0.0041  -0.0291  -0.0449  -0.0422   0.2942  -0.3187
  12 N   :2py    0.0266  -0.0021   0.0224  -0.0402  -0.0541   0.3220  -0.2605
  13 N   :2pz    0.0124   0.0078   0.1050   0.1199  -0.0451   0.1030   0.1457
  21 N   :3d0   -0.0008  -0.0012   0.0169  -0.0020   0.0041  -0.0035  -0.0050
  25 C   :1s     0.0091  -0.0883   0.0563   0.1150   0.0542   0.0629   0.0953
  26 C   :1s     0.0127  -0.0538   0.0287  -0.0040   0.0233   0.0298  -0.0456
  27 C   :1s    -0.0410  -0.0542  -0.1644  -0.5982   0.6077  -1.9334   0.1494
  28 C   :2px   -0.0207  -0.3088   0.0194   0.0232   0.0472  -0.0475  -0.0177
  29 C   :2py    0.0402   0.1107  -0.1497   0.0603   0.0422  -0.0124   0.1283
  30 C   :2pz    0.0325  -0.1316  -0.1660  -0.1559  -0.0091  -0.0231  -0.0495
  31 C   :2px   -0.0286   0.0795   0.0175   0.0020  -0.0033   0.1684   0.0689
  32 C   :2py    0.0206  -0.0796   0.0155   0.0580   0.0608  -0.1119  -0.1711
  33 C   :2pz   -0.0394   0.0457   0.1067  -0.0014   0.0033   0.0003  -0.1589
  34 C   :2px    0.0284  -0.0097  -0.0260  -0.3073  -0.2431   0.5055  -0.0280
  35 C   :2py   -0.0004   0.0071  -0.0830  -0.1865   0.2275   0.0808  -0.3368
  36 C   :2pz   -0.0038  -0.0330  -0.0770  -0.5129   0.1519  -0.6363  -1.4939
  37 C   :3d2-  -0.0031   0.0034   0.0119  -0.0083   0.0222  -0.0108   0.0042
  38 C   :3d1-   0.0027  -0.0041  -0.0342   0.0047  -0.0143   0.0048  -0.0027
  39 C   :3d0   -0.0014   0.0055  -0.0014  -0.0046   0.0108  -0.0005  -0.0077
  40 C   :3d1+  -0.0053  -0.0016  -0.0106  -0.0072   0.0302   0.0024   0.0002
  42 C   :3d2-   0.0147  -0.0052  -0.0152   0.0025   0.0276  -0.0276   0.0464
  43 C   :3d1-  -0.0066  -0.0132  -0.0001   0.0037   0.0012  -0.0311  -0.0376
  44 C   :3d0    0.0048  -0.0039  -0.0238  -0.0196   0.0034  -0.0399   0.0015
  45 C   :3d1+  -0.0243   0.0287  -0.0137  -0.0286  -0.0056   0.0009   0.0418
  46 C   :3d2+   0.0101  -0.0149   0.0297   0.0196   0.0295   0.0453  -0.0055
  48 C   :1s    -0.0004  -0.0795   0.0050  -0.0198  -0.0338  -0.0085   0.0211
  49 C   :1s     0.0446  -0.0329  -0.0520   0.0521   0.0101  -0.2256  -0.0385
  50 C   :1s     0.0040  -0.0141   0.0671   1.4949   0.3032  -0.5737  -0.0436
  51 C   :2px    0.0414   0.1351  -0.0018  -0.0165  -0.1292   0.0118   0.0083
  52 C   :2py   -0.1243  -0.0645  -0.0181  -0.1335   0.3770  -0.1085  -0.0133
  53 C   :2pz   -0.1791   0.0563  -0.0353  -0.1663   0.6265  -0.1138  -0.0562
  54 C   :2px   -0.0439  -0.0138   0.0455   0.0094  -0.0228   0.0995  -0.0044
  55 C   :2py    0.0165   0.0232  -0.0064  -0.0242   0.0456   0.0001   0.0350
  56 C   :2pz    0.0314  -0.0250   0.0204  -0.0009   0.1039   0.0290   0.0065
  57 C   :2px   -0.0070   0.0264  -0.0187  -0.0263   0.0197   0.3822  -0.0548
  58 C   :2py    0.0015  -0.0125   0.0023   0.2698   0.1677   0.0474  -0.2144
  59 C   :2pz   -0.0004   0.0067   0.0055  -0.1481   0.0715  -0.0847   0.2023
  60 C   :3d2-  -0.0040   0.0544  -0.0021   0.0002  -0.0150   0.0009  -0.0057
  61 C   :3d1-   0.0207  -0.0182  -0.0005  -0.0148  -0.0005   0.0006  -0.0034
  62 C   :3d0   -0.0386  -0.0019   0.0025   0.0072  -0.0250   0.0050   0.0006
  63 C   :3d1+   0.0113  -0.0375   0.0096   0.0100  -0.0113   0.0010  -0.0003
  64 C   :3d2+  -0.0269  -0.0329   0.0060  -0.0058  -0.0085  -0.0000  -0.0026
  65 C   :3d2-   0.0017  -0.0061   0.0108   0.0167   0.0004   0.0120  -0.0100
  66 C   :3d1-   0.0139  -0.0131  -0.0082   0.0118   0.0251   0.0346   0.0063
  67 C   :3d0   -0.0065   0.0149   0.0020  -0.0140  -0.0510   0.0192   0.0178
  68 C   :3d1+  -0.0018  -0.0025  -0.0025   0.0041  -0.0130  -0.0257   0.0062
  69 C   :3d2+   0.0189  -0.0310  -0.0026   0.0472   0.0233  -0.0016  -0.0140
  71 O   :1s     0.0023  -0.0011  -0.0058   0.0549   0.0336  -0.0294   0.0083
  72 O   :1s     0.0048  -0.0137  -0.0049   0.0254   0.0195   0.0138   0.0092
  73 O   :1s     0.0025  -0.0482  -0.0061  -0.0835   0.0638   0.2888   0.1579
  74 O   :2px    0.1082  -0.7974   0.0819   0.0017   0.0898   0.0526  -0.0326
  75 O   :2py   -0.3393  -0.1568   0.0324   0.1218  -0.2365   0.0836  -0.0033
  76 O   :2pz   -0.5500  -0.0453   0.0112   0.1020  -0.4111   0.0550  -0.0133
  77 O   :2px    0.0004   0.0109  -0.0035   0.0019   0.0078  -0.0031  -0.0055
  78 O   :2py    0.0019  -0.0102   0.0007  -0.0020  -0.0329   0.0204   0.0069
  79 O   :2pz    0.0131   0.0089  -0.0008   0.0193  -0.0442  -0.0026  -0.0076
  80 O   :2px    0.0121  -0.0934   0.0117  -0.0044   0.0295  -0.0617  -0.0938
  81 O   :2py   -0.0315  -0.0319   0.0047  -0.0125  -0.1256   0.0963   0.0622
  82 O   :2pz   -0.0531   0.0073  -0.0013   0.0911  -0.1809   0.0268  -0.0269
  85 O   :3d0    0.0123  -0.0001   0.0001   0.0014  -0.0064   0.0015   0.0009
  93 H   :1s    -0.0077   0.0380   0.1531   0.0172   0.0250   0.0385  -0.0119
  94 H   :1s    -0.0075   0.0290  -0.0135  -0.0142   0.0333   0.0438   0.0160
  95 H   :1s    -0.0015  -0.0072  -0.0078   0.0200   0.0803   0.3648  -0.1209
  97 H   :2py   -0.0012   0.0010   0.0165   0.0004   0.0025  -0.0058   0.0000
  98 H   :2pz   -0.0003   0.0046   0.0112  -0.0019  -0.0020   0.0051  -0.0032
  99 H   :2px    0.0020   0.0166  -0.0058   0.0015   0.0085  -0.0347   0.0195
 100 H   :2py   -0.0023   0.0117   0.0160   0.0094   0.0005  -0.0122   0.0360
 101 H   :2pz   -0.0054   0.0056   0.0131  -0.0065  -0.0045   0.0198   0.0005
 102 H   :1s    -0.0295   0.1544   0.2194  -0.0005   0.1367  -0.0438  -0.0300
 103 H   :1s    -0.0662   0.0205   0.1030  -0.0599   0.0029   0.1241  -0.1671
 104 H   :1s     0.0054  -0.0015  -0.0070  -0.7596   0.1820  -0.7112  -2.5249
 108 H   :2px   -0.0128   0.0013   0.0044  -0.0156  -0.0472  -0.0532   0.0137
 109 H   :2py    0.0119  -0.0047  -0.0024  -0.0563   0.0100  -0.0299   0.0228
 110 H   :2pz   -0.0194   0.0105   0.0230   0.0462  -0.0078   0.0454   0.0662
 112 C   :1s     0.0179   0.0080  -0.1298   0.1763  -0.1410  -0.0992  -0.1325
 113 C   :1s     0.0115   0.0206  -0.0656   0.1712  -0.1061  -0.1327  -0.1787
 114 C   :1s     0.0064   0.0367   0.1347   1.0853  -0.5145   0.2205  -0.1371
 115 C   :2px    0.0171   0.0993  -0.0471   0.0015  -0.0100   0.1365  -0.0639
 116 C   :2py   -0.0933  -0.0352   0.2056   0.0908   0.1435  -0.0185  -0.0627
 117 C   :2pz    0.0003   0.0142   0.1595   0.0017   0.1290  -0.0815  -0.0696
 118 C   :2px    0.0047  -0.0520  -0.0262  -0.0218   0.0113   0.0902  -0.0209
 119 C   :2py    0.0157  -0.0116   0.0023   0.0336   0.0207  -0.0770  -0.2044
 120 C   :2pz    0.0147  -0.0594  -0.0200   0.0272   0.0274  -0.0861  -0.2466
 121 C   :2px   -0.0032   0.0011   0.0115   0.0228   0.1656   0.4713  -0.1260
 122 C   :2py    0.0108  -0.0127   0.0009   0.0574   0.1930  -0.2691  -0.6417
 123 C   :2pz   -0.0052  -0.0099  -0.0244  -0.0594   0.3210  -0.2357  -0.3474
 124 C   :3d2-  -0.0010   0.0082   0.0066   0.0020  -0.0123   0.0057  -0.0046
 129 C   :3d2-   0.0060  -0.0040  -0.0059  -0.0057  -0.0186  -0.0162  -0.0262
 130 C   :3d1-  -0.0034   0.0182  -0.0064  -0.0059   0.0023   0.0174   0.0687
 131 C   :3d0   -0.0017   0.0021  -0.0031   0.0008   0.0059   0.0064   0.0154
 132 C   :3d1+  -0.0061   0.0078   0.0012  -0.0017  -0.0010  -0.0254  -0.0072
 133 C   :3d2+   0.0082  -0.0001   0.0091   0.0069   0.0181   0.0049  -0.0072
 134 H   :1s    -0.0370  -0.1443  -0.0130  -0.0333   0.0840  -0.0530  -0.0027
 135 H   :1s     0.0179  -0.0342  -0.0754  -0.1754   0.0614   0.2501   0.0747
 136 H   :1s    -0.0054  -0.0170  -0.0082  -0.4509   0.7490   1.1093   0.2101
 140 H   :2px    0.0052  -0.0150  -0.0239   0.0055  -0.0248  -0.0085   0.0174
 141 H   :2py    0.0004   0.0026   0.0057  -0.0086   0.0240  -0.0229   0.0381
 142 H   :2pz   -0.0026  -0.0025  -0.0035   0.0104   0.0013  -0.0118   0.0472
 143 H   :1s     0.0432   0.0593   0.0233   0.0064  -0.0111  -0.0189   0.0178
 144 H   :1s    -0.0697   0.0694   0.0511  -0.1340  -0.0084   0.2302   0.4424
 145 H   :1s     0.0150   0.0150   0.0228   0.1265  -0.2861   0.6298   0.9823
 149 H   :2px   -0.0069   0.0051  -0.0032  -0.0053  -0.0003  -0.0050   0.0203
 150 H   :2py   -0.0027  -0.0011  -0.0024  -0.0131  -0.0059  -0.0255   0.0270
 151 H   :2pz    0.0250  -0.0223  -0.0201   0.0194  -0.0089  -0.0109  -0.0420
 152 H   :1s    -0.0575   0.0482   0.1305   0.0192  -0.0471   0.0564  -0.0413
 153 H   :1s     0.0430   0.0227   0.0207  -0.1223  -0.0034   0.1833   0.4449
 154 H   :1s    -0.0187   0.0139   0.0134  -0.3550  -0.5270  -0.0138   2.0577
 158 H   :2px   -0.0001  -0.0005  -0.0072  -0.0145  -0.0234  -0.0304  -0.0131
 159 H   :2py   -0.0177  -0.0060  -0.0067  -0.0245  -0.0264  -0.0308  -0.0295
 160 H   :2pz    0.0029  -0.0053   0.0000   0.0234   0.0051   0.0178   0.0102
 161 H   :1s     0.0201  -0.0311   0.1695   0.0209  -0.0418   0.0157  -0.0357
 162 H   :1s    -0.0330  -0.0016  -0.0045  -0.0466  -0.0170   0.0859  -0.1228
 163 H   :1s     0.0063   0.0003  -0.0004  -0.1611  -0.2634   0.9903  -1.0466
 164 H   :2px   -0.0001  -0.0004   0.0070   0.0039   0.0029  -0.0152   0.0071
 166 H   :2pz    0.0002   0.0010   0.0187   0.0015  -0.0019   0.0022  -0.0012
 167 H   :2px   -0.0045  -0.0034   0.0044   0.0153   0.0078  -0.0705   0.0328
 168 H   :2py   -0.0033   0.0008   0.0113  -0.0133   0.0120   0.0030   0.0255
 169 H   :2pz   -0.0004  -0.0001   0.0235   0.0002  -0.0053   0.0106   0.0104
 171 O   :1s    -0.0006   0.0913  -0.0140   0.1567   0.0835   0.0824  -0.0209
 172 O   :1s     0.0051   0.0170  -0.0082   0.0516   0.0328   0.0362   0.0044
 173 O   :1s    -0.0299   0.0295   0.0070  -0.3248  -0.1191   0.0529   0.2093
 174 O   :2px   -0.1300  -0.2379   0.0298  -0.0731   0.0252  -0.0551   0.0139
 175 O   :2py    0.3706  -0.1651   0.0329   0.1792  -0.1187   0.1026  -0.0243
 176 O   :2pz    0.5188   0.0567   0.0558  -0.0347  -0.2801  -0.0471  -0.0463
 177 O   :2px   -0.0045   0.0250  -0.0026  -0.0097  -0.0002  -0.0170  -0.0049
 178 O   :2py    0.0045   0.0087   0.0041   0.0106  -0.0166   0.0002  -0.0081
 179 O   :2pz    0.0040  -0.0001  -0.0007   0.0027  -0.0353   0.0011  -0.0108
 180 O   :2px   -0.0034  -0.0219   0.0013   0.0939   0.0969  -0.0210  -0.0171
 181 O   :2py    0.0385  -0.0148   0.0109   0.1325  -0.0237   0.0919   0.0071
 182 O   :2pz    0.0545   0.0084   0.0050  -0.0175  -0.1252  -0.0275   0.0042
 192 O   :3d2+   0.0021  -0.0085   0.0008   0.0072   0.0115   0.0018  -0.0029
 193 H   :1s    -0.0031  -0.0606  -0.0010  -0.1056  -0.0292  -0.0556  -0.0110
 194 H   :1s     0.0252  -0.0070  -0.0011  -0.0320   0.0014  -0.0669  -0.0304
 195 H   :1s    -0.0002  -0.0076   0.0101  -0.6940  -0.4911  -0.7593   0.3000
 197 H   :2py    0.0113  -0.0057   0.0021  -0.0157  -0.0138  -0.0079   0.0014
 198 H   :2pz    0.0156   0.0014  -0.0004   0.0166  -0.0020   0.0104   0.0016
 199 H   :2px   -0.0058  -0.0084  -0.0043   0.0154  -0.0007  -0.0075  -0.0016
 200 H   :2py    0.0061  -0.0007   0.0070  -0.0912  -0.0639  -0.0549   0.0382
 201 H   :2pz    0.0204  -0.0024  -0.0029   0.0826  -0.0043   0.0607   0.0223

    Orbital        29       30       31       32       33       34
   2 N   :1s    -0.0614   0.0110  -0.1210  -0.0384   0.0351  -0.0126
   3 N   :1s    -0.0606   0.0137  -0.0537  -0.0973   0.2067   0.1108
   4 N   :1s     1.2492  -1.0978  -1.0526  -2.8906   3.8008   4.4642
   5 N   :2px    0.0042  -0.1118  -0.0277  -0.0867  -0.0645   0.0483
   6 N   :2py    0.0890   0.0286  -0.0032   0.0399   0.0657   0.0179
   7 N   :2pz   -0.0708   0.0071  -0.0051   0.0388  -0.1025  -0.0689
   8 N   :2px   -0.0001  -0.0263   0.0401  -0.0397  -0.0335  -0.0801
   9 N   :2py    0.0083   0.0458   0.0663   0.0462   0.0376  -0.0354
  10 N   :2pz   -0.0175  -0.0090  -0.0313  -0.0382  -0.0240   0.0268
  11 N   :2px    0.2042  -0.3626   0.0460  -0.6744  -0.3807   0.3163
  12 N   :2py    0.5294  -0.0514  -0.0722  -0.2413   1.0535   0.6970
  13 N   :2pz    0.1543  -0.3824  -0.4465  -0.1644  -0.3345   0.7212
  19 N   :3d2-  -0.0037  -0.0025   0.0022  -0.0098   0.0183  -0.0239
  20 N   :3d1-   0.0018   0.0119   0.0114   0.0278  -0.0311  -0.0283
  21 N   :3d0   -0.0050   0.0101  -0.0059   0.0047  -0.0311  -0.0196
  22 N   :3d1+   0.0069   0.0027   0.0001   0.0019  -0.0137  -0.0151
  23 N   :3d2+   0.0091  -0.0025  -0.0180   0.0121   0.0132   0.0154
  25 C   :1s    -0.0003  -0.0816   0.0637   0.0057   0.0522  -0.1781
  26 C   :1s     0.1947  -0.0089  -0.0186   0.0948  -0.0293  -0.2489
  27 C   :1s    -4.2325   2.9620   0.1275   6.3364  -1.6845 -13.6638
  28 C   :2px   -0.0381  -0.0290  -0.0331  -0.0868   0.0612   0.0351
  29 C   :2py   -0.0086  -0.0152  -0.0606   0.0456  -0.0178  -0.0765
  30 C   :2pz   -0.0756   0.1045   0.0046  -0.0729   0.0402  -0.0350
  31 C   :2px   -0.1552   0.1065   0.1144  -0.1754   0.0259  -0.2497
  32 C   :2py    0.1458  -0.0014   0.0754   0.0813   0.1707  -0.0438
  33 C   :2pz    0.1215   0.0808   0.0957   0.0997  -0.1924  -0.0319
  34 C   :2px    0.3454  -0.3501  -0.3371   0.6204   2.3707   0.2197
  35 C   :2py    0.0267  -1.0572   0.8483  -2.6348   3.3348   1.1279
  36 C   :2pz   -1.8418   2.5295   0.7472  -0.7639   1.3375  -4.8146
  42 C   :3d2-   0.0047  -0.0472  -0.0640  -0.0267   0.0674  -0.0328
  43 C   :3d1-   0.0669   0.0632   0.0222   0.1082  -0.1221  -0.0811
  44 C   :3d0   -0.0156  -0.0119   0.0381   0.0798   0.0459  -0.0116
  45 C   :3d1+  -0.0466   0.0299   0.0177   0.0359  -0.1496  -0.0193
  46 C   :3d2+   0.0179   0.0491   0.0322  -0.0134   0.0712  -0.0969
  48 C   :1s     0.0392   0.0366   0.0128   0.0449  -0.0069   0.0150
  49 C   :1s     0.0863  -0.0788   0.0069  -0.0952  -0.0124   0.5884
  50 C   :1s    -0.2259  -0.7711   2.0874  -7.7950   0.2906   5.4598
  51 C   :2px   -0.0029  -0.0661  -0.0580   0.0044   0.0413   0.0047
  52 C   :2py    0.1529  -0.0496   0.0274   0.0076  -0.0375  -0.0359
  53 C   :2pz    0.2107  -0.0438   0.0713   0.0021  -0.0204  -0.0486
  54 C   :2px   -0.1053   0.1577   0.1051  -0.1331  -0.1071  -0.0132
  55 C   :2py    0.0368  -0.0377   0.0087  -0.0456   0.0721   0.0940
  56 C   :2pz    0.0532   0.0271   0.0193  -0.0925  -0.0730  -0.0438
  57 C   :2px    0.3913   1.0550  -0.2882   2.8654  -1.6974  -0.4925
  58 C   :2py   -0.0220   0.6030   0.3232  -1.1070   0.0038  -0.3398
  59 C   :2pz    0.3156  -0.3656  -0.0362   0.6228  -0.8934   1.1608
  62 C   :3d0   -0.0037   0.0034  -0.0018   0.0102  -0.0063  -0.0002
  65 C   :3d2-  -0.0048   0.0473   0.0668  -0.0746   0.0863  -0.0656
  66 C   :3d1-   0.0399   0.0199   0.0041   0.0546   0.0392  -0.0194
  67 C   :3d0   -0.0031   0.0071  -0.0302   0.0143  -0.0495   0.0029
  68 C   :3d1+  -0.0216  -0.0139  -0.0173   0.0576  -0.0567   0.0259
  69 C   :3d2+   0.0135   0.0133   0.0080   0.0011   0.0453   0.0218
  71 O   :1s    -0.0801  -0.0650  -0.0066  -0.0869   0.0109  -0.0918
  72 O   :1s    -0.0273  -0.0266   0.0075  -0.0340   0.0872  -0.0760
  73 O   :1s     0.3315  -0.0417  -0.1884   0.7507   0.4005  -0.6714
  74 O   :2px    0.0106   0.0539   0.0605  -0.0369   0.0054   0.0174
  75 O   :2py   -0.0743   0.0223   0.0028   0.0538   0.0464  -0.0215
  76 O   :2pz   -0.1421  -0.0032  -0.0279   0.0299   0.0353  -0.0268
  77 O   :2px    0.0034   0.0051   0.0154  -0.0136   0.0121   0.0012
  78 O   :2py   -0.0077  -0.0007  -0.0107   0.0181   0.0290  -0.0444
  79 O   :2pz   -0.0226   0.0069   0.0047  -0.0016  -0.0062   0.0339
  80 O   :2px   -0.2064   0.0146   0.0842  -0.4711   0.3503  -0.1999
  81 O   :2py    0.0875  -0.0198   0.0079   0.3832   0.1887  -0.0520
  82 O   :2pz   -0.1163  -0.0248  -0.0511  -0.1318   0.0193  -0.0805
  88 O   :3d2-  -0.0002  -0.0059   0.0011  -0.0102   0.0116   0.0009
  89 O   :3d1-   0.0009   0.0022   0.0016  -0.0011  -0.0050   0.0121
  90 O   :3d0   -0.0023   0.0048  -0.0013  -0.0116  -0.0006   0.0030
  91 O   :3d1+  -0.0025  -0.0022  -0.0028   0.0044  -0.0111   0.0026
  92 O   :3d2+   0.0009   0.0008  -0.0038  -0.0023  -0.0169   0.0091
  93 H   :1s     0.0186  -0.0025   0.0310   0.0631  -0.0615   0.0250
  94 H   :1s     0.1643   0.2844   0.3347   0.6511  -0.1774  -0.4520
  95 H   :1s     1.2521   0.6597   1.2857   1.5604   3.4638   0.6878
  99 H   :2px   -0.0367  -0.0138  -0.0376  -0.0558   0.0385   0.0255
 100 H   :2py    0.0123   0.0549   0.0047   0.0974  -0.1103  -0.0328
 101 H   :2pz    0.0116  -0.0461  -0.0044  -0.1499   0.0602   0.0873
 102 H   :1s    -0.0032  -0.0078   0.0384   0.0128  -0.0400  -0.0038
 103 H   :1s     0.1911   0.2866   0.1939   0.0128  -0.6927   0.0564
 104 H   :1s    -1.9901   4.7823   1.0874  -1.2160   0.2091  -3.6116
 108 H   :2px    0.0271  -0.0112  -0.0183   0.0452  -0.0405   0.0841
 109 H   :2py   -0.0307   0.0222  -0.0315  -0.0037   0.0666  -0.0449
 110 H   :2pz    0.0513  -0.0111   0.0583   0.0840  -0.1415   0.0011
 111 C   :1s    -0.0020   0.0037   0.0004   0.0021   0.0027  -0.0149
 112 C   :1s    -0.0123  -0.0226  -0.0144   0.0338   0.0215  -0.0994
 113 C   :1s     0.0714  -0.3162  -0.1243  -0.0108  -0.0060   0.4599
 114 C   :1s     3.8839  -2.9731  -1.5266   2.9601  -3.0210   8.2797
 115 C   :2px   -0.0988  -0.0154  -0.1428   0.0599   0.0115   0.0572
 116 C   :2py    0.1131   0.0451  -0.0780  -0.0147  -0.0083  -0.0554
 117 C   :2pz   -0.0628  -0.1077   0.0796   0.0797   0.0290   0.0029
 118 C   :2px   -0.1691  -0.0128  -0.1626   0.0616   0.1085  -0.0013
 119 C   :2py    0.2703   0.0376  -0.0909   0.1369  -0.0677   0.0373
 120 C   :2pz    0.0985  -0.1464   0.0351   0.2601  -0.0234   0.0178
 121 C   :2px   -0.0827  -0.4878  -1.5275   2.0107  -0.8679   1.3411
 122 C   :2py   -0.1861   1.3471  -0.6279  -0.7207   0.0258  -2.9550
 123 C   :2pz   -0.6516  -0.5000   0.5736   0.5141   0.4706  -2.0617
 125 C   :3d1-   0.0000   0.0002   0.0017   0.0037  -0.0055  -0.0205
 127 C   :3d1+   0.0037   0.0043   0.0046   0.0033  -0.0099   0.0118
 129 C   :3d2-   0.0115  -0.0092   0.0298   0.0951  -0.0326  -0.0062
 130 C   :3d1-  -0.0600  -0.0189   0.0188  -0.0078   0.0125  -0.0240
 131 C   :3d0   -0.0109  -0.0295  -0.0269   0.0103   0.0389  -0.0579
 132 C   :3d1+  -0.0004  -0.0210  -0.0205   0.0269  -0.0378   0.0268
 133 C   :3d2+   0.0318  -0.0393   0.0162  -0.0124   0.0740   0.0724
 134 H   :1s     0.0491   0.0032  -0.0072   0.0032  -0.0418   0.0628
 135 H   :1s    -0.4573   0.0717  -0.1702   0.2420   0.0914  -0.5256
 136 H   :1s    -1.8691  -1.6178  -3.1388   4.9943   1.4797   1.3419
 139 H   :2pz    0.0006  -0.0032   0.0019   0.0008   0.0041  -0.0138
 140 H   :2px   -0.0610   0.0257   0.0385   0.0324   0.0528  -0.1138
 141 H   :2py   -0.0363  -0.0087   0.0572   0.0473   0.0368   0.0351
 142 H   :2pz   -0.0140  -0.0137  -0.0644   0.0044   0.0257  -0.0551
 143 H   :1s    -0.0448  -0.0010  -0.0016  -0.0205   0.0438   0.0864
 144 H   :1s     0.0024   0.4981  -0.0297  -0.4699  -0.0816  -0.2188
 145 H   :1s     1.6630   2.5401  -2.7971  -2.8755  -1.0849   0.0147
 149 H   :2px    0.0780   0.0281   0.0612   0.0222  -0.0736   0.0214
 150 H   :2py   -0.0828   0.0680   0.0146  -0.0384  -0.0265  -0.0507
 151 H   :2pz    0.0023  -0.0466  -0.0191   0.0321   0.0596   0.1004
 152 H   :1s     0.0110  -0.0172   0.0178  -0.0087  -0.0082   0.0045
 153 H   :1s    -0.2071   0.0435   0.3571  -0.4898   0.2104  -0.3226
 154 H   :1s    -0.6940  -0.8275   5.0472  -0.5706  -0.5287   0.9968
 158 H   :2px    0.0803  -0.0064  -0.0305   0.0140  -0.1104   0.0287
 159 H   :2py   -0.0206  -0.0330   0.0014   0.0826  -0.0021   0.0475
 160 H   :2pz    0.0271   0.0465   0.0035  -0.0185  -0.0223  -0.0138
 161 H   :1s    -0.0066  -0.0198  -0.0006  -0.0008  -0.0154   0.0139
 162 H   :1s    -0.1415  -0.1020   0.2741  -0.0631  -0.6823  -0.6034
 163 H   :1s     0.4347  -2.0558   0.4557  -2.3008  -1.7006  -0.8297
 167 H   :2px   -0.0438   0.0239   0.0528  -0.0330  -0.0813  -0.1369
 168 H   :2py   -0.0247   0.0113  -0.0370   0.0163  -0.0302   0.0224
 169 H   :2pz    0.0173   0.0052  -0.0096  -0.0128   0.0955  -0.0338
 171 O   :1s    -0.1008   0.0505   0.0705  -0.0457   0.0157  -0.0698
 172 O   :1s    -0.0541   0.0227  -0.0016   0.0193  -0.0219  -0.0278
 173 O   :1s     0.1289  -0.1433  -0.4918   1.2857  -0.8163  -0.2724
 174 O   :2px    0.0222  -0.0098  -0.0012  -0.0668   0.0713   0.0583
 175 O   :2py   -0.0668   0.1061  -0.0079   0.1084  -0.0505  -0.0534
 176 O   :2pz   -0.0604  -0.0080  -0.0947  -0.0371   0.1186  -0.0421
 177 O   :2px    0.0025  -0.0016   0.0072  -0.0350   0.0129   0.0370
 178 O   :2py   -0.0119   0.0344   0.0138  -0.0124  -0.0057   0.0407
 179 O   :2pz   -0.0087  -0.0122  -0.0245  -0.0010   0.0134  -0.0196
 180 O   :2px   -0.2323  -0.0994   0.2269  -0.6098   0.5773   0.1422
 181 O   :2py   -0.0311   0.2560   0.1430   0.1361  -0.1167   0.2654
 182 O   :2pz   -0.0287  -0.1424  -0.1778  -0.1139   0.2081  -0.3693
 188 O   :3d2-  -0.0017  -0.0035  -0.0005   0.0030  -0.0012  -0.0164
 190 O   :3d0    0.0009  -0.0033   0.0018  -0.0048   0.0002   0.0129
 193 H   :1s     0.0566  -0.0447  -0.0398  -0.0390   0.0730   0.0582
 194 H   :1s     0.0513  -0.2183  -0.0272  -0.3319   0.3413  -0.0919
 195 H   :1s     1.0497  -2.1822  -1.7856   0.7262  -0.5182  -0.7244
 199 H   :2px    0.0112  -0.0257  -0.0210   0.0246  -0.0084  -0.0931
 200 H   :2py   -0.0049  -0.0494  -0.0101  -0.0535   0.0173   0.0593
 201 H   :2pz   -0.0144  -0.0048   0.0521   0.0121  -0.0153   0.0164

  Total CPU  time used in SIRIUS :   8.07 seconds
  Total wall time used in SIRIUS :   8.19 seconds

 
     Date and time (Linux)  : Thu May  7 18:48:49 2020
     Host name              : s73p19.deic.sdu.dk                      


                     .---------------------------------------.
                     | End of Wave Function Section (SIRIUS) |
                     `---------------------------------------'



                 .------------------------------------------------.
                 | Starting in Dynamic Property Section (RESPONS) |
                 `------------------------------------------------'


 ------------------------------------------------------------------------------
  RESPONSE  -  an MCSCF, MC-srDFT, DFT, and SOPPA response property program
 ------------------------------------------------------------------------------


 -------- OUTPUT FROM RESPONSE INPUT PROCESSING --------




 Quadratic Response single residue calculation
 ---------------------------------------------

 That is, calculation of second order moments.

 Two-photon transition processes computed (.TWO-PHOTON).
 Both photon frequencies are half the excitation energy.

 Spin of operator A , ISPINA=    0
 Spin of operator B , ISPINB=    0
 Spin of operator C , (Excitation energy) ISPINC=    0

 Print level                                    : IPRSMO =    2
 Threshold for convergence in RSPPP             : THCPP  = 1.000D-03
 Maximum number of iterations in RSPPP          : MAXITP =   60
 Threshold for convergence in RSPLR             : THCLR  = 1.000D-03
 Maximum number of iterations in RSPLR          : MAXITL =   60
 Maximum iterations in optimal orbital algorithm: MAXITO =    5

   12 A OPERATORS OF SYMMETRY NO:    1 AND LABELS:

          XDIPVEL 
          YDIPVEL 
          ZDIPVEL 
          XANGMOM 
          YANGMOM 
          ZANGMOM 
          XXROTSTR
          YYROTSTR
          ZZROTSTR
          XYROTSTR
          XZROTSTR
          YZROTSTR

    3 B OPERATORS OF SYMMETRY NO:    1 AND LABELS:

          XDIPVEL 
          YDIPVEL 
          ZDIPVEL 


   SCF energy         :     -323.613443133322562
 -- inactive part     :     -572.829955448215401
 -- nuclear repulsion :      249.216512314892810


                    *****************************************
                    *** DFT response calculation (TD-DFT) ***
                    *****************************************



 Linear response excitations for quadratic response
 - symmetry of excitation operator    1  ( A  )
 - is the operator a triplet operator ?     F


 Perturbation symmetry.     KSYMOP:       1
 Perturbation spin symmetry.TRPLET:       F
 Orbital variables.         KZWOPT:    4248
 Configuration variables.   KZCONF:       0
 Total number of variables. KZVAR :    4248



 --- EXCITATION ENERGIES AND TRANSITION MOMENT CALCULATION (MCTDHF) ---

 Operator symmetry = 1  ( A  ); triplet =   F


 ** RSPCTL MICROITERATION NUMBER    1

      Root  Residual tot.,    conf., and orb.    Bnorm      Eigenvalue
      ----------------------------------------------------------------
         1    6.19842D-02  0.00D+00  6.20D-02  7.07D-01    2.01102D-01
         2    8.61598D-02  0.00D+00  8.62D-02  7.07D-01    2.10031D-01
         3    7.57122D-02  0.00D+00  7.57D-02  7.07D-01    2.15063D-01
         4    5.13860D-02  0.00D+00  5.14D-02  7.07D-01    2.20798D-01
         5    4.18317D-02  0.00D+00  4.18D-02  7.07D-01    2.35599D-01
         6    7.45082D-02  0.00D+00  7.45D-02  7.07D-01    2.42917D-01
         7    3.32100D-02  0.00D+00  3.32D-02  7.07D-01    2.48409D-01
         8    5.38817D-02  0.00D+00  5.39D-02  7.07D-01    2.59953D-01
         9    4.69609D-02  0.00D+00  4.70D-02  7.07D-01    2.66068D-01
        10    4.85802D-02  0.00D+00  4.86D-02  7.07D-01    2.72215D-01
        11    4.04207D-02  0.00D+00  4.04D-02  7.07D-01    2.75348D-01
        12    4.07895D-02  0.00D+00  4.08D-02  7.07D-01    2.76181D-01
        13    4.03992D-02  0.00D+00  4.04D-02  7.07D-01    2.81530D-01
        14    2.75767D-02  0.00D+00  2.76D-02  7.07D-01    2.82300D-01
        15    7.44447D-02  0.00D+00  7.44D-02  7.07D-01    2.85389D-01
        16    8.31280D-02  0.00D+00  8.31D-02  7.07D-01    2.90524D-01
        17    5.21697D-02  0.00D+00  5.22D-02  7.07D-01    3.01368D-01
        18    4.59413D-02  0.00D+00  4.59D-02  7.07D-01    3.04512D-01
        19    2.63761D-02  0.00D+00  2.64D-02  7.07D-01    3.05255D-01
        20    5.53262D-02  0.00D+00  5.53D-02  7.07D-01    3.05953D-01
        21    5.25424D-02  0.00D+00  5.25D-02  7.07D-01    3.11995D-01
[...]
       1  14 0.14062     -3.913      2.909      6.198      4.689     -1.717      3.580
       1  15 0.14153     -2.046     -3.615    -13.784      2.642      6.534      8.654
       1  16 0.14421      2.597      4.175     -0.417     -3.270    -10.591      1.641
       1  17 0.14934    -10.972     -4.403     -7.414     -5.621      2.120      4.023
       1  18 0.15103      4.481     -6.499     -4.357     -4.629      0.563      5.772
       1  19 0.15173     -7.788     -6.792     -2.914      0.337      3.165      6.813
       1  20 0.15199     -1.061      1.154     -0.560     -2.351      1.412     -0.041
       1  21 0.15404      4.268     -1.349      2.939     -4.464     -2.082     -1.690
       1  22 0.15584      9.333     -4.641     -3.338     -2.641     -1.243     -6.606
       1  23 0.15628    -20.743     -8.289     -6.649      0.871      0.080     -1.353
       1  24 0.15699      6.933      6.376      1.388      1.603     -0.888     -2.408
       1  25 0.15829      7.171      0.970      0.886    -11.953     -1.611      1.097
       1  26 0.15950     -5.584      5.126     -7.501      1.281      2.019      1.467
       1  27 0.16036      5.585      0.919      0.803     -1.816     -1.644      0.405
       1  28 0.16138      4.690      1.278     -1.395      1.310     -6.829     -0.621
       1  29 0.16194      2.362    -11.978     -3.898     -6.513     -0.425      4.121
       1  30 0.16287      7.082     -6.843     -4.154     -2.087      1.397      3.584


        +--------------------------------------------------+
        | El. dip.-mag. dip. trans. tensor  M (vel. gauge) |
        +--------------------------------------------------+
     ------------------------------------------------------------------------------------------------------------------
     Sym  No  Energy        Mxx        Myy        Mzz        Mxy        Mxz        Myx        Myz        Mzx        Mzy
     ------------------------------------------------------------------------------------------------------------------
       1   1    5.43     -0.404      1.134      0.768     -1.842      0.278     -4.312     -0.523      4.753     -4.166
       1   2    5.64     -1.532     -2.026      0.148      0.800      0.001     -2.174      3.970     -4.366     -3.933
       1   3    5.78     -0.868     -1.404      0.204     -0.762     -0.278      1.893      0.323      2.638      4.365
       1   4    5.98     -5.095     -0.744      3.261     -7.681      3.398      9.001      0.028     -7.990     -7.128
       1   5    6.39      0.780      0.272     -1.380     -0.859     -0.396      0.310     -0.860      2.833      4.313
       1   6    6.55      0.925      4.827     -6.458      5.753    -10.510     -2.097      9.962      1.147     -7.940
       1   7    6.73      2.898      6.496     -4.991     -5.189      5.423      1.252     -6.663      5.740     -1.638
       1   8    7.04     -1.064      2.760     -2.834     -0.026     -0.222      2.677     -1.362      7.929      3.517
       1   9    7.20      2.854      0.087     -3.521     -3.333     -7.567     -4.481      2.315      1.166     -6.028
       1  10    7.37      2.123     -0.981     -0.484      1.122     -1.395      3.442     -4.936      2.087     -5.649
       1  11    7.44     -0.654      0.522      1.478      3.966     -2.275     -2.865      0.046      1.138      3.582
       1  12    7.49      2.099      1.085     -1.734      1.492      1.018      3.352      0.878     -6.211     -3.076
       1  13    7.63     -2.785     -1.270      1.841      1.936     -0.139      2.072     -3.290     -1.542     -5.072
       1  14    7.65     -3.356     -3.221      5.798     -2.871     -3.348      2.858     -3.175     -0.527      8.111
       1  15    7.70     -1.226     -2.438      4.310     -4.496     -9.005     -3.126      5.836      3.678      0.863
       1  16    7.85      2.486      3.115     -4.813     -7.922    -11.518      4.131      5.095     -0.451     -2.260
       1  17    8.13      1.018      1.547     -3.142      1.850      0.711      1.392      0.191     -3.621      5.238
       1  18    8.22      2.689     -2.262     -0.031     -0.684     -0.147      0.362      1.283      0.219      2.752
       1  19    8.26      1.963      3.002      1.003     -2.851      0.961     -1.316     -0.105     -0.918     -4.526
       1  20    8.27     -2.736     -0.884      0.706     -2.333      3.751      1.624      1.608     -2.829     -0.689
       1  21    8.38     -1.890      1.559      0.155     -1.785      0.334      1.736     -2.109     -0.965      3.440
       1  22    8.48     -3.170      6.552     -0.537      0.468     -0.047     -2.290     -2.091     -1.125     -1.701
       1  23    8.51     -0.027     -5.546      0.575     -0.242     -1.637      4.485      4.133      5.058     -1.204
       1  24    8.54      0.717     -7.948     -1.642      2.452     -0.643      1.636      4.448     -2.306      2.583
       1  25    8.61     -1.263     -4.147      2.786      2.375     -2.417     -1.396     -0.576     -0.550      5.167
       1  26    8.68      2.400     -3.390      2.399     10.152      0.521     -5.942      2.536      2.676      5.535
       1  27    8.73      0.108     -1.408      1.178     -0.398      7.109      0.751     -2.332     -1.961      2.359
       1  28    8.78      0.966     -2.618      2.913     -1.315     -0.111     -1.099      0.805     -0.400      0.649
       1  29    8.81     -0.429     -1.037     -0.526     -1.421     -7.132      1.534      1.948      2.071      2.316
       1  30    8.86      0.863      4.631     -5.760      1.444      0.700      1.859     -2.095     -2.652      5.960


        +--------------------------------------------------+
        | El. dip.-el. quad. trans. tensor  T (vel. gauge) |
        +--------------------------------------------------+
     ---------------------------------------------------------------------------------------------------------------------------------------------------------------------------------------------------------------------
     Sym  No  Energy       Txxx       Txxy       Txxz       Tyyx       Tyyy       Tyyz       Tzzx       Tzzy       Tzzz       Txyx       Txyy       Txyz       Txzx       Txzy       Txzz       Tyzx       Tyzy       Tyzz
     ---------------------------------------------------------------------------------------------------------------------------------------------------------------------------------------------------------------------
       1   1    5.43      1.953     -0.698     -2.668     -1.866     -1.718     -1.043     -1.613     -3.660      0.571      1.525      2.425     -0.012     -0.817      0.839     -0.643      0.570      3.035     -0.466
       1   2    5.64      5.249     -0.228     -3.424     -0.470     -3.364     -0.653     -1.210     -2.436     -0.040     -0.242      1.315     -1.157     -0.802     -0.872      1.665      0.836      1.129     -0.492
       1   3    5.78     -2.554     -0.074      0.399      1.151      1.806      0.562     -0.267      0.536     -1.357     -0.484      0.423      1.441     -0.702     -0.268     -0.865     -0.448     -0.740     -0.563
       1   4    5.98     -4.138      3.770      7.936     -1.238     -0.351      2.862     -0.474     -0.073      0.086      0.227      0.108      2.124      3.999      2.678     -1.838      4.809      3.333     -2.149
       1   5    6.39      1.094     -2.817      1.153     -0.982     -1.810      0.698     -2.581      0.098     -1.291     -2.168     -1.866      2.312      0.062      2.364     -1.319      0.665      0.116      0.718
       1   6    6.55      2.922     -0.353      0.774     -1.287    -11.966     -4.378      3.233      0.591     -2.452     -0.895      6.457      5.754      0.656      5.854      8.752      1.086     -3.153      2.302
       1   7    6.73      3.653     -4.988     -0.692      2.886     -2.462      2.922      0.724     -0.604      0.956     -2.629      9.524      3.764     -1.238      2.395     -2.884     -0.167      2.711     -3.810
       1   8    7.04     -9.226     -1.402      1.861     -1.140      0.866      0.148      1.726      0.476     -0.099      0.566     -3.713     -0.057      2.806      0.069     -0.018     -1.213      0.618      0.785
       1   9    7.20      7.699     -5.148     -7.834     -6.719      0.867      2.694     -1.090      6.572      7.473     -1.973     -7.008     -2.282     -3.208      0.655     -1.921     -1.693      2.523      3.930
       1  10    7.37     -4.212      6.747      5.003     -4.583    -26.113    -10.910     -2.553     -0.774      4.874      3.255      1.130     -4.434      2.348     -4.775     -7.354     -3.581     -7.630     -2.111
       1  11    7.44     -1.350      0.247     -2.030     -0.416     -4.591     -1.234      0.873      1.046      0.282     -0.919     -2.229     -0.893     -0.634     -1.955      1.626     -0.954     -0.937      0.536
       1  12    7.49      2.723      4.113      3.273     -0.869     -1.317     -1.354     -1.121      1.021     -3.329      3.248      0.090     -0.895      1.364     -0.671      0.149     -0.490      0.037      0.894
       1  13    7.63     -9.290      2.017      1.043     -4.485     -2.224      1.267     -1.390     -0.439      3.872      1.015     -2.572      2.813      2.479      1.239     -3.551      0.522      0.530     -2.050
       1  14    7.65      3.783     -7.214      2.197      8.729     -9.056     -3.784      2.782      5.219      6.812     -6.460      8.065      4.576      1.351      2.880      1.390      4.567     -1.780      4.428
       1  15    7.70      3.218      4.231     -3.484      0.333     -5.431      0.016      1.986     -1.380      3.648      2.951      2.326     -0.619     -0.461      1.293      8.120      1.172      4.852      3.288
       1  16    7.85     -0.491      3.132      5.732     -0.097      7.951      8.855      0.482     12.376      7.683      2.610     -1.280     -2.020      4.407     -3.254      0.211     -0.900     11.180     13.621
       1  17    8.13      0.483     -3.926      3.101      0.333     -1.425      0.304      3.309     -0.443      1.940     -6.638     -2.096      1.421      3.592      0.959      0.091      0.020      1.091     -2.216
       1  18    8.22     -1.177     -2.878      1.808     -5.316     -3.644      3.303      0.992     -3.267     -0.233     -0.825     -4.212     -1.221      1.533     -0.484      0.881      0.486      4.325      0.044
       1  19    8.26     -3.925     -3.552     -0.069     -0.270     -4.806      2.510     -4.626     -4.444      2.287     -4.253     -1.188     -0.825      1.319     -0.030     -3.932      0.930      6.694     -1.691
       1  20    8.27      0.076      1.722      0.513     -0.316      2.440      0.062     -1.290     -0.781      2.362      0.320     -0.423      1.270      0.139      0.269     -1.061      0.769      0.864     -1.329
       1  21    8.38      5.006     -2.724      2.708      1.028      6.765     -1.373      0.612     -0.296      2.814     -0.649     -0.044      1.792      1.842      1.140      0.072      1.456     -2.583      1.176
       1  22    8.48     -1.788      4.208      9.486     -1.112      1.688      2.718      3.198      2.168      7.236      0.738      0.295      6.053      7.227      6.939      5.370      3.257      2.773      1.650
       1  23    8.51    -10.201     -1.637      3.095     -0.274      1.380      0.344      0.830      1.253      1.840     -1.307      0.008      1.703      1.582      1.852      3.274      0.137     -0.125      1.818
       1  24    8.54      2.678      1.525      2.920     -0.196     -1.013      0.586      1.020      0.113      0.873     -1.165     -0.929      1.255      3.224      0.171      1.084      1.060      0.981      0.109
       1  25    8.61     -5.361      1.718      0.062      0.949      5.371     -0.217     -1.967      1.533     -1.175      3.257     -1.512     -1.698     -0.598     -2.011     -0.793     -2.846     -0.234      1.375
       1  26    8.68     -0.484     -2.040     -0.052      1.322      3.442     -2.886     -0.244     -0.815      3.914     -2.139     -2.162     -0.124     -0.055     -1.062      0.939      0.110     -1.988     -2.946
       1  27    8.73      0.428      1.759     -0.120     -1.398     -3.072     -1.378      0.638      0.645      2.821      0.574     -1.935     -0.861      0.489     -1.691     -1.200     -0.978      0.969     -0.490
       1  28    8.78      5.318      1.754     -3.480     -2.307     -1.444      1.651     -0.174      0.644     -0.706      2.657     -0.023     -0.843     -3.208     -0.383      1.414      0.407      1.129     -0.238
       1  29    8.81     -0.507      3.395     -2.147     -4.636    -13.085      6.798     -0.780     -1.082      3.086      3.057      0.846      0.143     -0.287      1.304      1.950      0.461      8.016      1.382
       1  30    8.86      0.349      0.772     -2.052     -0.942     -0.410      1.296     -0.236     -3.006      1.260      1.039     -3.540      1.295     -1.476      1.177     -0.494      0.024      1.553     -1.782
     ------------------------------------------------------------------------


                    Transition probabilities (a.u.)         
                   -----------------------------------------
                    D  =  2*Df + 4*Dg, Linear   polarization
                    D  = -2*Df + 6*Dg, Circular polarization
                    Df = sum(i,j){ S_ii * S_jj }/30         
                    Dg = sum(i,j){ S_ij * S_ij }/30         

                   Two-photon cross sections                
         ---------------------------------------------------
          sigma  =  8*pi^3*alpha^2*hbar/e^4 * E^2*D   (a.u.)

                             Polarization ratio      
                      -------------------------------
                          R  = (-Df+3*Dg)/(Df+2*Dg)  


                   +-----------------------------------+
                   |   Two-photon absorption summary   |
                   +-----------------------------------+
   ---------------------------------------------------------------------------------
   Sym  No  Energy  Polarization         Df         Dg          D      sigma       R
   ---------------------------------------------------------------------------------
     1   1    5.43   Linear       0.259E+00  0.429E+00  0.224E+01  0.483E-01    0.92
     1   1    5.43   Circular     0.259E+00  0.429E+00  0.206E+01  0.445E-01    0.92
     1   2    5.64   Linear       0.275E-02  0.316E+00  0.127E+01  0.296E-01    1.49
     1   2    5.64   Circular     0.275E-02  0.316E+00  0.189E+01  0.440E-01    1.49
     1   3    5.78   Linear       0.261E+00  0.172E+00  0.121E+01  0.296E-01    0.42
     1   3    5.78   Circular     0.261E+00  0.172E+00  0.509E+00  0.125E-01    0.42
     1   4    5.98   Linear       0.183E+01  0.191E+01  0.113E+02  0.297E+00    0.69
     1   4    5.98   Circular     0.183E+01  0.191E+01  0.782E+01  0.205E+00    0.69
     1   5    6.39   Linear       0.413E-01  0.579E+00  0.240E+01  0.717E-01    1.41
     1   5    6.39   Circular     0.413E-01  0.579E+00  0.339E+01  0.101E+00    1.41
     1   6    6.55   Linear       0.816E+00  0.829E+01  0.348E+02  0.109E+01    1.38
     1   6    6.55   Circular     0.816E+00  0.829E+01  0.481E+02  0.151E+01    1.38
     1   7    6.73   Linear       0.197E+00  0.223E+01  0.932E+01  0.309E+00    1.39
     1   7    6.73   Circular     0.197E+00  0.223E+01  0.130E+02  0.431E+00    1.39
     1   8    7.04   Linear       0.369E+00  0.317E+00  0.200E+01  0.728E-01    0.58
     1   8    7.04   Circular     0.369E+00  0.317E+00  0.116E+01  0.423E-01    0.58
     1   9    7.20   Linear       0.154E+01  0.372E+01  0.180E+02  0.682E+00    1.07
     1   9    7.20   Circular     0.154E+01  0.372E+01  0.193E+02  0.731E+00    1.07
     1  10    7.37   Linear       0.554E-02  0.834E+01  0.334E+02  0.133E+01    1.50
     1  10    7.37   Circular     0.554E-02  0.834E+01  0.500E+02  0.199E+01    1.50
     1  11    7.44   Linear       0.553E-01  0.496E+00  0.209E+01  0.849E-01    1.37
     1  11    7.44   Circular     0.553E-01  0.496E+00  0.286E+01  0.116E+00    1.37
     1  12    7.49   Linear       0.124E+00  0.516E+00  0.231E+01  0.950E-01    1.23
     1  12    7.49   Circular     0.124E+00  0.516E+00  0.285E+01  0.117E+00    1.23
     1  13    7.63   Linear       0.158E+01  0.194E+01  0.109E+02  0.465E+00    0.78
     1  13    7.63   Circular     0.158E+01  0.194E+01  0.847E+01  0.361E+00    0.78
     1  14    7.65   Linear       0.136E+01  0.370E+01  0.175E+02  0.752E+00    1.11
     1  14    7.65   Circular     0.136E+01  0.370E+01  0.195E+02  0.837E+00    1.11
     1  15    7.70   Linear       0.215E+01  0.646E+01  0.302E+02  0.131E+01    1.14
     1  15    7.70   Circular     0.215E+01  0.646E+01  0.345E+02  0.150E+01    1.14
     1  16    7.85   Linear       0.181E+02  0.199E+02  0.116E+03  0.521E+01    0.72
     1  16    7.85   Circular     0.181E+02  0.199E+02  0.831E+02  0.375E+01    0.72
     1  17    8.13   Linear       0.146E+01  0.985E+00  0.686E+01  0.332E+00    0.43
     1  17    8.13   Circular     0.146E+01  0.985E+00  0.298E+01  0.144E+00    0.43
     1  18    8.22   Linear       0.105E+01  0.771E+00  0.519E+01  0.257E+00    0.48
     1  18    8.22   Circular     0.105E+01  0.771E+00  0.252E+01  0.125E+00    0.48
     1  19    8.26   Linear       0.354E+01  0.295E+01  0.189E+02  0.942E+00    0.56
     1  19    8.26   Circular     0.354E+01  0.295E+01  0.106E+02  0.530E+00    0.56
     1  20    8.27   Linear       0.377E+00  0.409E+00  0.239E+01  0.120E+00    0.71
     1  20    8.27   Circular     0.377E+00  0.409E+00  0.170E+01  0.852E-01    0.71
     1  21    8.38   Linear       0.143E+00  0.779E+00  0.340E+01  0.175E+00    1.29
     1  21    8.38   Circular     0.143E+00  0.779E+00  0.438E+01  0.226E+00    1.29
     1  22    8.48   Linear       0.990E+01  0.906E+01  0.560E+02  0.295E+01    0.62
     1  22    8.48   Circular     0.990E+01  0.906E+01  0.345E+02  0.182E+01    0.62
     1  23    8.51   Linear       0.362E+00  0.136E+01  0.616E+01  0.327E+00    1.21
     1  23    8.51   Circular     0.362E+00  0.136E+01  0.744E+01  0.394E+00    1.21
     1  24    8.54   Linear       0.860E+00  0.485E+00  0.366E+01  0.196E+00    0.33
     1  24    8.54   Circular     0.860E+00  0.485E+00  0.119E+01  0.637E-01    0.33
     1  25    8.61   Linear       0.134E+00  0.497E+00  0.226E+01  0.123E+00    1.20
     1  25    8.61   Circular     0.134E+00  0.497E+00  0.272E+01  0.148E+00    1.20
     1  26    8.68   Linear       0.117E+00  0.136E+01  0.566E+01  0.312E+00    1.40
     1  26    8.68   Circular     0.117E+00  0.136E+01  0.790E+01  0.436E+00    1.40
     1  27    8.73   Linear       0.610E+00  0.607E+00  0.365E+01  0.204E+00    0.66
     1  27    8.73   Circular     0.610E+00  0.607E+00  0.242E+01  0.135E+00    0.66
     1  28    8.78   Linear       0.259E+00  0.549E+00  0.271E+01  0.153E+00    1.02
     1  28    8.78   Circular     0.259E+00  0.549E+00  0.278E+01  0.157E+00    1.02
     1  29    8.81   Linear       0.390E+01  0.296E+01  0.196E+02  0.112E+01    0.51
     1  29    8.81   Circular     0.390E+01  0.296E+01  0.994E+01  0.566E+00    0.51
     1  30    8.86   Linear       0.596E-01  0.526E+00  0.222E+01  0.128E+00    1.37
     1  30    8.86   Circular     0.596E-01  0.526E+00  0.304E+01  0.175E+00    1.37
   ---------------------------------------------------------------------------------

  Total CPU  time used in RESPONSE:  6 minutes 16 seconds
  Total wall time used in RESPONSE:  6 minutes 18 seconds


                   .-------------------------------------------.
                   | End of Dynamic Property Section (RESPONS) |
                   `-------------------------------------------'

  Total CPU  time used in DALTON:  6 minutes 24 seconds
  Total wall time used in DALTON:  6 minutes 27 seconds

 
     Date and time (Linux)  : Thu May  7 18:55:08 2020
     Host name              : s73p19.deic.sdu.dk                      
