

     ************************************************************************
     *************** Dalton - An Electronic Structure Program ***************
     ************************************************************************

    This is output from DALTON release Dalton2019.alpha (2019)
         ( Web site: http://daltonprogram.org )

   ----------------------------------------------------------------------------

    NOTE:
     
    Dalton is an experimental code for the evaluation of molecular
    properties using (MC)SCF, DFT, CI, and CC wave functions.
    The authors accept no responsibility for the performance of
    the code or for the correctness of the results.
     
    The code (in whole or part) is provided under a licence and
    is not to be reproduced for further distribution without
    the written permission of the authors or their representatives.
     
    See the home page "http://daltonprogram.org" for further information.
     
    If results obtained with this code are published,
    the appropriate citations would be both of:
     
       K. Aidas, C. Angeli, K. L. Bak, V. Bakken, R. Bast,
       L. Boman, O. Christiansen, R. Cimiraglia, S. Coriani,
       P. Dahle, E. K. Dalskov, U. Ekstroem,
       T. Enevoldsen, J. J. Eriksen, P. Ettenhuber, B. Fernandez,
       L. Ferrighi, H. Fliegl, L. Frediani, K. Hald, A. Halkier,
       C. Haettig, H. Heiberg, T. Helgaker, A. C. Hennum,
       H. Hettema, E. Hjertenaes, S. Hoest, I.-M. Hoeyvik,
       M. F. Iozzi, B. Jansik, H. J. Aa. Jensen, D. Jonsson,
       P. Joergensen, J. Kauczor, S. Kirpekar,
       T. Kjaergaard, W. Klopper, S. Knecht, R. Kobayashi, H. Koch,
       J. Kongsted, A. Krapp, K. Kristensen, A. Ligabue,
       O. B. Lutnaes, J. I. Melo, K. V. Mikkelsen, R. H. Myhre,
       C. Neiss, C. B. Nielsen, P. Norman, J. Olsen,
       J. M. H. Olsen, A. Osted, M. J. Packer, F. Pawlowski,
       T. B. Pedersen, P. F. Provasi, S. Reine, Z. Rinkevicius,
       T. A. Ruden, K. Ruud, V. Rybkin, P. Salek, C. C. M. Samson,
       A. Sanchez de Meras, T. Saue, S. P. A. Sauer,
       B. Schimmelpfennig, K. Sneskov, A. H. Steindal,
       K. O. Sylvester-Hvid, P. R. Taylor, A. M. Teale,
       E. I. Tellgren, D. P. Tew, A. J. Thorvaldsen, L. Thoegersen,
       O. Vahtras, M. A. Watson, D. J. D. Wilson, M. Ziolkowski
       and H. Agren,
       "The Dalton quantum chemistry program system",
       WIREs Comput. Mol. Sci. 2014, 4:269–284 (doi: 10.1002/wcms.1172)
     
    and
     
       Dalton, a molecular electronic structure program,
       Release Dalton2019.alpha (2019), see http://daltonprogram.org
   ----------------------------------------------------------------------------

    Authors in alphabetical order (major contribution(s) in parenthesis):

  Kestutis Aidas,           Vilnius University,           Lithuania   (QM/MM)
  Celestino Angeli,         University of Ferrara,        Italy       (NEVPT2)
  Keld L. Bak,              UNI-C,                        Denmark     (AOSOPPA, non-adiabatic coupling, magnetic properties)
  Vebjoern Bakken,          University of Oslo,           Norway      (DALTON; geometry optimizer, symmetry detection)
  Radovan Bast,             UiT The Arctic U. of Norway,  Norway      (DALTON installation and execution frameworks)
  Pablo Baudin,             University of Valencia,       Spain       (Cholesky excitation energies)
  Linus Boman,              NTNU,                         Norway      (Cholesky decomposition and subsystems)
  Ove Christiansen,         Aarhus University,            Denmark     (CC module)
  Renzo Cimiraglia,         University of Ferrara,        Italy       (NEVPT2)
  Sonia Coriani,            Technical Univ. of Denmark,   Denmark     (CC module, MCD in RESPONS)
  Janusz Cukras,            University of Trieste,        Italy       (MChD in RESPONS)
  Paal Dahle,               University of Oslo,           Norway      (Parallelization)
  Erik K. Dalskov,          UNI-C,                        Denmark     (SOPPA)
  Thomas Enevoldsen,        Univ. of Southern Denmark,    Denmark     (SOPPA)
  Janus J. Eriksen,         Aarhus University,            Denmark     (Polarizable embedding model, TDA)
  Rasmus Faber,             University of Copenhagen,     Denmark     (Vib.avg. NMR with SOPPA, parallel AO-SOPPA)
  Tobias Fahleson,          KTH Stockholm,                Sweden      (Damped cubic response)
  Berta Fernandez,          U. of Santiago de Compostela, Spain       (doublet spin, ESR in RESPONS)
  Lara Ferrighi,            Aarhus University,            Denmark     (PCM Cubic response)
  Heike Fliegl,             University of Oslo,           Norway      (CCSD(R12))
  Luca Frediani,            UiT The Arctic U. of Norway,  Norway      (PCM)
  Bin Gao,                  UiT The Arctic U. of Norway,  Norway      (Gen1Int library)
  Christof Haettig,         Ruhr-University Bochum,       Germany     (CC module)
  Kasper Hald,              Aarhus University,            Denmark     (CC module)
  Asger Halkier,            Aarhus University,            Denmark     (CC module)
  Frederik Beyer Hansen,    University of Copenhagen,     Denmark     (Parallel AO-SOPPA)
  Erik D. Hedegaard,        Univ. of Southern Denmark,    Denmark     (Polarizable embedding model, QM/MM)
  Hanne Heiberg,            University of Oslo,           Norway      (geometry analysis, selected one-electron integrals)
  Trygve Helgaker,          University of Oslo,           Norway      (DALTON; ABACUS, ERI, DFT modules, London, and much more)
  Alf Christian Hennum,     University of Oslo,           Norway      (Parity violation)
  Hinne Hettema,            University of Auckland,       New Zealand (quadratic response in RESPONS; SIRIUS supersymmetry)
  Eirik Hjertenaes,         NTNU,                         Norway      (Cholesky decomposition)
  Pi A. B. Haase,           University of Copenhagen,     Denmark     (Triplet AO-SOPPA)
  Maria Francesca Iozzi,    University of Oslo,           Norway      (RPA)
  Christoph Jacob           TU Braunschweig               Germany     (Frozen density embedding model)
  Brano Jansik              Technical Univ. of Ostrava    Czech Rep.  (DFT cubic response)
  Hans Joergen Aa. Jensen,  Univ. of Southern Denmark,    Denmark     (DALTON; SIRIUS, RESPONS, ABACUS modules, London, and much more)
  Dan Jonsson,              UiT The Arctic U. of Norway,  Norway      (cubic response in RESPONS module)
  Poul Joergensen,          Aarhus University,            Denmark     (RESPONS, ABACUS, and CC modules)
  Maciej Kaminski,          University of Warsaw,         Poland      (CPPh in RESPONS)
  Joanna Kauczor,           Linkoeping University,        Sweden      (Complex polarization propagator (CPP) module)
  Sheela Kirpekar,          Univ. of Southern Denmark,    Denmark     (Mass-velocity & Darwin integrals)
  Wim Klopper,              KIT Karlsruhe,                Germany     (R12 code in CC, SIRIUS, and ABACUS modules)
  Stefan Knecht,            ETH Zurich,                   Switzerland (Parallel CI and MCSCF)
  Rika Kobayashi,           Australian National Univ.,    Australia   (DIIS in CC, London in MCSCF)
  Henrik Koch,              NTNU,                         Norway      (CC module, Cholesky decomposition)
  Jacob Kongsted,           Univ. of Southern Denmark,    Denmark     (Polarizable embedding model, QM/MM)
  Andrea Ligabue,           University of Modena,         Italy       (CTOCD, AOSOPPA)
  Nanna H. List             Univ. of Southern Denmark,    Denmark     (Polarizable embedding model)
  Ola B. Lutnaes,           University of Oslo,           Norway      (DFT Hessian)
  Juan I. Melo,             University of Buenos Aires,   Argentina   (LRESC, Relativistic Effects on NMR Shieldings)
  Kurt V. Mikkelsen,        University of Copenhagen,     Denmark     (MC-SCRF and QM/MM)
  Rolf H. Myhre,            NTNU,                         Norway      (Subsystems and CC3)
  Christian Neiss,          Univ. Erlangen-Nuernberg,     Germany     (CCSD(R12))
  Christian B. Nielsen,     University of Copenhagen,     Denmark     (QM/MM)
  Patrick Norman,           KTH Stockholm,                Sweden      (Cubic response and complex frequency response in RESPONS)
  Jeppe Olsen,              Aarhus University,            Denmark     (SIRIUS CI/density modules)
  Jogvan Magnus H. Olsen,   Univ. of Southern Denmark,    Denmark     (Polarizable embedding model, QM/MM)
  Anders Osted,             Copenhagen University,        Denmark     (QM/MM)
  Martin J. Packer,         University of Sheffield,      UK          (SOPPA)
  Filip Pawlowski,          Kazimierz Wielki University,  Poland      (CC3)
  Morten N. Pedersen,       Univ. of Southern Denmark,    Denmark     (Polarizable embedding model)
  Thomas B. Pedersen,       University of Oslo,           Norway      (Cholesky decomposition)
  Patricio F. Provasi,      University of Northeastern,   Argentina   (Analysis of coupling constants in localized orbitals)
  Zilvinas Rinkevicius,     KTH Stockholm,                Sweden      (open-shell DFT, ESR)
  Elias Rudberg,            KTH Stockholm,                Sweden      (DFT grid and basis info)
  Torgeir A. Ruden,         University of Oslo,           Norway      (Numerical derivatives in ABACUS)
  Kenneth Ruud,             UiT The Arctic U. of Norway,  Norway      (DALTON; ABACUS magnetic properties and much more)
  Pawel Salek,              KTH Stockholm,                Sweden      (DALTON; DFT code)
  Claire C. M. Samson       University of Karlsruhe       Germany     (Boys localization, r12 integrals in ERI)
  Alfredo Sanchez de Meras, University of Valencia,       Spain       (CC module, Cholesky decomposition)
  Trond Saue,               Paul Sabatier University,     France      (direct Fock matrix construction)
  Stephan P. A. Sauer,      University of Copenhagen,     Denmark     (SOPPA(CCSD), SOPPA prop., AOSOPPA, vibrational g-factors)
  Andre S. P. Gomes,        CNRS/Universite de Lille,     France      (Frozen density embedding model)
  Bernd Schimmelpfennig,    Forschungszentrum Karlsruhe,  Germany     (AMFI module)
  Kristian Sneskov,         Aarhus University,            Denmark     (Polarizable embedding model, QM/MM)
  Arnfinn H. Steindal,      UiT The Arctic U. of Norway,  Norway      (parallel QM/MM, Polarizable embedding model)
  Casper Steinmann,         Univ. of Southern Denmark,    Denmark     (QFIT, Polarizable embedding model)
  K. O. Sylvester-Hvid,     University of Copenhagen,     Denmark     (MC-SCRF)
  Peter R. Taylor,          VLSCI/Univ. of Melbourne,     Australia   (Symmetry handling ABACUS, integral transformation)
  Andrew M. Teale,          University of Nottingham,     England     (DFT-AC, DFT-D)
  David P. Tew,             University of Bristol,        England     (CCSD(R12))
  Olav Vahtras,             KTH Stockholm,                Sweden      (triplet response, spin-orbit, ESR, TDDFT, open-shell DFT)
  Lucas Visscher,           Vrije Universiteit Amsterdam, Netherlands (Frozen density embedding model)
  David J. Wilson,          La Trobe University,          Australia   (DFT Hessian and DFT magnetizabilities)
  Hans Agren,               KTH Stockholm,                Sweden      (SIRIUS module, RESPONS, MC-SCRF solvation model)
 --------------------------------------------------------------------------------

     Date and time (Linux)  : Tue May 12 20:35:34 2020
     Host name              : s73p20.deic.sdu.dk                      

 * Work memory size             :   307200000 =  2.289 gigabytes.

 * Directories for basis set searches:
   1) /home/salvatore/ECD/R-BINOL/gas/rizzo/ciclopent
   2) /gpfs/gss1/work/sdujk/foeroyingur/Programs/dalton/build/pe/develop/basis


Compilation information
-----------------------

 Who compiled             | foeroyingur
 Host                     | fe1.deic.sdu.dk
 System                   | Linux-3.10.0-327.36.3.el7.x86_64
 CMake generator          | Unix Makefiles
 Processor                | x86_64
 64-bit integers          | OFF
 MPI                      | ON
 Fortran compiler         | /opt/sys/apps/intel/2018.05/impi_latest/intel64/bi
                          | n/mpiifort
 Fortran compiler version | unknown
 C compiler               | /opt/sys/apps/intel/2018.05/impi_latest/intel64/bi
                          | n/mpiicc
 C compiler version       | unknown
 C++ compiler             | /opt/sys/apps/intel/2018.05/impi_latest/intel64/bi
                          | n/mpiicpc
 C++ compiler version     | unknown
 Static linking           | OFF
 Last Git revision        | c988ec84aab2c775c476a86e7d3049a3f15e3f66
 Git branch               | pe/develop
 Configuration time       | 2019-09-25 16:51:26.133160

 * MPI parallel run using 96 processes.


   Content of the .dal input file
 ----------------------------------

**DALTON INPUT
.DIRECT
.RUN RESPONSE
**WAVE FUNCTIONS
.DFT
B3LYP
**RESPONSE
*QUADRATIC
.SINGLE
.DIPLEN
.TWO-PHOTON
.ROOTS
30
**END OF


   Content of the .mol file
 ----------------------------

BASIS
aug-cc-pVDZ
axial.xyz
Generated by Open Babel. Check overall charge below.
AtomTypes=3 Charge=0 NoSymmetry Angstrom
Charge=6.0 Atoms=6
C             0.1344900000   -0.9810710000    0.6854500000
C            -1.1774670000   -0.1944210000    0.4886490000
C            -0.6955580000    1.2818280000    0.4064020000
C             0.6518780000    1.2257410000   -0.3356250000
C             1.2100550000   -0.1678540000   -0.0367290000
C            -1.9276270000   -0.6346660000   -0.7753090000
Charge=8.0 Atoms=1
O             2.3214180000   -0.5596410000   -0.3226250000
Charge=1.0 Atoms=10
H             0.1170630000   -2.0162540000    0.3221940000
H             0.4220730000   -1.0146990000    1.7492470000
H            -1.8445000000   -0.3253440000    1.3517180000
H            -0.5448760000    1.6759900000    1.4219480000
H            -1.4324650000    1.9280360000   -0.0879450000
H             1.3743280000    1.9968880000   -0.0407640000
H             0.5306500000    1.3056220000   -1.4267890000
H            -2.2296740000   -1.6891260000   -0.7057990000
H            -1.3039690000   -0.5293580000   -1.6757510000
H            -2.8345950000   -0.0319590000   -0.9240890000


       *******************************************************************
       *********** Output from DALTON general input processing ***********
       *******************************************************************

 --------------------------------------------------------------------------------
   Overall default print level:    0
   Print level for DALTON.STAT:    1

    Parallel calculation using MPI
    AO-direct calculation (in sections where implemented)
    HERMIT 1- and 2-electron integral sections will be executed
    "Old" integral transformation used (limited to max 255 basis functions)
    Wave function sections will be executed (SIRIUS module)
    Dynamic molecular response properties section will be executed (RESPONSE module)
 --------------------------------------------------------------------------------


   ****************************************************************************
   *************** Output of molecule and basis set information ***************
   ****************************************************************************


    The two title cards from your ".mol" input:
    ------------------------------------------------------------------------
 1: axial.xyz                                                               
 2: Generated by Open Babel. Check overall charge below.                    
    ------------------------------------------------------------------------

  Coordinates are entered in Angstrom and converted to atomic units.
          - Conversion factor : 1 bohr = 0.52917721 A

  Atomic type no.    1
  --------------------
  Nuclear charge:   6.00000
  Number of symmetry independent centers:    6
  Number of basis sets to read;    2
  Basis set file used for this atomic type with Z =   6 :
     "/gpfs/gss1/work/sdujk/foeroyingur/Programs/dalton/build/pe/develop/basis/aug-cc-pVDZ"

  Atomic type no.    2
  --------------------
  Nuclear charge:   8.00000
  Number of symmetry independent centers:    1
  Number of basis sets to read;    2
  Basis set file used for this atomic type with Z =   8 :
     "/gpfs/gss1/work/sdujk/foeroyingur/Programs/dalton/build/pe/develop/basis/aug-cc-pVDZ"

  Atomic type no.    3
  --------------------
  Nuclear charge:   1.00000
  Number of symmetry independent centers:   10
  Number of basis sets to read;    2
  Basis set file used for this atomic type with Z =   1 :
     "/gpfs/gss1/work/sdujk/foeroyingur/Programs/dalton/build/pe/develop/basis/aug-cc-pVDZ"


                         SYMGRP: Point group information
                         -------------------------------

@    Point group: C1 


                                 Isotopic Masses
                                 ---------------

                           C          12.000000
                           C          12.000000
                           C          12.000000
                           C          12.000000
                           C          12.000000
                           C          12.000000
                           O          15.994915
                           H           1.007825
                           H           1.007825
                           H           1.007825
                           H           1.007825
                           H           1.007825
                           H           1.007825
                           H           1.007825
                           H           1.007825
                           H           1.007825
                           H           1.007825

                       Total mass:    98.073165 amu
                       Natural abundance:  93.214 %

 Center-of-mass coordinates (a.u.):    0.147858   -0.024794    0.000338


  Atoms and basis sets
  --------------------

  Number of atom types :    3
  Total number of atoms:   17

  Basis set used is "aug-cc-pVDZ" from the basis set library.

  label    atoms   charge   prim   cont     basis
  ----------------------------------------------------------------------
  C           6    6.0000    35    23      [10s5p2d|4s3p2d]                                   
  O           1    8.0000    35    23      [10s5p2d|4s3p2d]                                   
  H          10    1.0000    11     9      [5s2p|3s2p]                                        
  ----------------------------------------------------------------------
  total:     17   54.0000   355   251
  ----------------------------------------------------------------------
  Spherical harmonic basis used.

  Threshold for neglecting AO integrals:  1.00D-12

  Max    interatomic separation is    5.2177 Angstrom (    9.8601 Bohr)
  between atoms   17 and    7, "H     " and "O     ".

  Min HX interatomic separation is    1.0971 Angstrom (    2.0731 Bohr)

  Min YX interatomic separation is    1.2126 Angstrom (    2.2915 Bohr)


  Bond distances (Angstrom):
  --------------------------

                  atom 1     atom 2       distance
                  ------     ------       --------
  bond distance:  C          C            1.542329
  bond distance:  C          C            1.555092
  bond distance:  C          C            1.539264
  bond distance:  C          C            1.529609
  bond distance:  C          C            1.530689
  bond distance:  C          C            1.534322
  bond distance:  O          C            1.212585
  bond distance:  H          C            1.097207
  bond distance:  H          C            1.102497
  bond distance:  H          C            1.098618
  bond distance:  H          C            1.099728
  bond distance:  H          C            1.097723
  bond distance:  H          C            1.097062
  bond distance:  H          C            1.100780
  bond distance:  H          C            1.099068
  bond distance:  H          C            1.100379
  bond distance:  H          C            1.099082


  Bond angles (degrees):
  ----------------------

                  atom 1     atom 2     atom 3         angle
                  ------     ------     ------         -----
  bond angle:     C          C          C            105.470
  bond angle:     C          C          H            115.179
  bond angle:     C          C          H            111.135
  bond angle:     C          C          H            110.883
  bond angle:     C          C          H            106.760
  bond angle:     H          C          H            107.147
  bond angle:     C          C          C            103.140
  bond angle:     C          C          C            112.003
  bond angle:     C          C          H            110.821
  bond angle:     C          C          C            112.354
  bond angle:     C          C          H            110.049
  bond angle:     C          C          H            108.428
  bond angle:     C          C          C            105.199
  bond angle:     C          C          H            109.504
  bond angle:     C          C          H            112.001
  bond angle:     C          C          H            109.772
  bond angle:     C          C          H            113.079
  bond angle:     H          C          H            107.269
  bond angle:     C          C          C            104.966
  bond angle:     C          C          H            114.916
  bond angle:     C          C          H            112.260
  bond angle:     C          C          H            110.325
  bond angle:     C          C          H            107.445
  bond angle:     H          C          H            106.735
  bond angle:     C          C          C            108.652
  bond angle:     C          C          O            125.733
  bond angle:     C          C          O            125.615
  bond angle:     C          C          H            110.950
  bond angle:     C          C          H            111.688
  bond angle:     C          C          H            110.955
  bond angle:     H          C          H            107.417
  bond angle:     H          C          H            107.932
  bond angle:     H          C          H            107.725




 Principal moments of inertia (u*A**2) and principal axes
 --------------------------------------------------------

   IA     114.477282          0.999207   -0.034809   -0.019348
   IB     232.706032          0.034969    0.999357    0.007979
   IC     279.206659          0.019057   -0.008649    0.999781


 Rotational constants
 --------------------

               A                   B                   C

           4414.6664           2171.7486           1810.0536 MHz
            0.147257            0.072442            0.060377 cm-1


@  Nuclear repulsion energy :  308.025172226932 Hartree


                     .---------------------------------------.
                     | Starting in Integral Section (HERMIT) |
                     `---------------------------------------'



 ***************************************************************************************
 ****************** Output from **INTEGRALS input processing (HERMIT) ******************
 ***************************************************************************************


 - Using defaults, no **INTEGRALS input found

 Default print level:        1

 Calculation of one-electron Hamiltonian integrals.

 Center of mass  (bohr):      0.147858222026     -0.024793965883      0.000337991541
 Operator center (bohr):      0.000000000000      0.000000000000      0.000000000000
 Gauge origin    (bohr):      0.000000000000      0.000000000000      0.000000000000
 Dipole origin   (bohr):      0.000000000000      0.000000000000      0.000000000000


     ************************************************************************
     ************************** Output from HERINT **************************
     ************************************************************************



                      Nuclear contribution to dipole moments
                      --------------------------------------

                 au               Debye          C m (/(10**-30)

      x      0.00000945         0.00002402         0.00008011
      y      0.00001890         0.00004803         0.00016022
      z     -0.00000378        -0.00000961        -0.00003204


  Time used in ONEDRV     is       0.13 seconds
  Time used in GABGEN     is       0.15 seconds
  Total CPU  time used in HERMIT:   0.66 seconds
  Total wall time used in HERMIT:   0.76 seconds


                        .----------------------------------.
                        | End of Integral Section (HERMIT) |
                        `----------------------------------'



                   .--------------------------------------------.
                   | Starting in Wave Function Section (SIRIUS) |
                   `--------------------------------------------'


 *** Output from Huckel module :

     Using EWMO model:          T
     Using EHT  model:          F
     Number of Huckel orbitals each symmetry:   45

 EWMO - Energy Weighted Maximum Overlap - is a Huckel type method,
        which normally is better than Extended Huckel Theory.
 Reference: Linderberg and Ohrn, Propagators in Quantum Chemistry (Wiley, 1973)

 Huckel EWMO eigenvalues for symmetry :  1
          -20.684794     -11.362447     -11.352546     -11.350649     -11.348952
          -11.347189     -11.346303      -2.073935      -1.665059      -1.503767
           -1.365316      -1.191217      -0.953700      -0.901266      -0.847587
           -0.751276      -0.721022      -0.658712      -0.645328      -0.597102
           -0.589924      -0.529429      -0.479728      -0.447798      -0.444651
           -0.430054      -0.404124      -0.274744      -0.167854      -0.149134
           -0.143788      -0.142053      -0.137165      -0.132225      -0.126717
           -0.125349      -0.123215      -0.119529      -0.116116      -0.114043
           -0.112668      -0.109784      -0.107547      -0.106223      -0.105072

 **********************************************************************
 *SIRIUS* a direct, restricted step, second order MCSCF program       *
 **********************************************************************

 
     Date and time (Linux)  : Tue May 12 20:35:36 2020
     Host name              : s73p20.deic.sdu.dk                      

 Title lines from ".mol" input file:
     axial.xyz                                                               
     Generated by Open Babel. Check overall charge below.                    

 Print level on unit LUPRI =   2 is   0
 Print level on unit LUW4  =   2 is   5

@    Restricted, closed shell Kohn-Sham DFT calculation.

@    Time-dependent Kohn-Sham DFT calculation (TD-DFT).
 Fock matrices are calculated directly and in parallel without use of integrals on disk.

 Initial molecular orbitals are obtained according to
 ".MOSTART EWMO  " input option

     Wave function specification
     ============================
@    Wave function type        --- KS-DFT ---
@    Number of closed shell electrons          54
@    Number of electrons in active shells       0
@    Total charge of the molecule               0

@    Spin multiplicity and 2 M_S                1         0
@    Total number of symmetries                 1 (point group: C1 )
@    Reference state symmetry                   1 (irrep name : A  )
 
     This is a DFT calculation of type: B3LYP
 Weighted mixed functional:
               HF exchange:    0.20000
                       VWN:    0.19000
                       LYP:    0.81000
                     Becke:    0.72000
                    Slater:    0.80000

     Orbital specifications
     ======================
@    Abelian symmetry species          All |    1
@                                          |  A  
                                       --- |  ---
@    Occupied SCF orbitals              27 |   27
@    Secondary orbitals                224 |  224
@    Total number of orbitals          251 |  251
@    Number of basis functions         251 |  251

     Optimization information
     ========================
@    Number of configurations                 1
@    Number of orbital rotations           6048
     ------------------------------------------
@    Total number of variables             6049

     Maximum number of Fock   iterations      0
     Maximum number of DIIS   iterations     60
     Maximum number of QC-SCF iterations     60
     Threshold for SCF convergence     1.00D-05
 
     This is a DFT calculation of type: B3LYP
 Weighted mixed functional:
               HF exchange:    0.20000
                       VWN:    0.19000
                       LYP:    0.81000
                     Becke:    0.72000
                    Slater:    0.80000


 ***********************************************
 ***** DIIS acceleration of SCF iterations *****
 ***********************************************

 C1-DIIS algorithm; max error vectors =    8

 Iter      Total energy        Error norm    Delta(E)  DIIS dim.
 -----------------------------------------------------------------------------
   1  Screening settings (-IFTHRS, JTDIIS, DIFDEN, times)   -8    1    F  1.13D+00  1.13D+00
      K-S energy, electrons, error :    -35.339447403846  53.9999552008   -4.48D-05
@  1    -308.423633085        4.54882D+00   -3.08D+02    1
      Virial theorem: -V/T =      2.015213
@    MULPOP   C       0.20; C      -0.23; C       0.37; C       0.09; C       1.10; C       0.37; O      -1.23; H      -0.08; H      -0.01; H      -0.15; 
@             H      -0.12; H      -0.12; H      -0.05; H      -0.01; H      -0.04; H      -0.05; H      -0.05; 
   1  Level shift: doubly occupied orbital energies shifted by -2.00D-01
 -----------------------------------------------------------------------------
   2  Screening settings (-IFTHRS, JTDIIS, DIFDEN, times)   -9    2    F  4.99D-01  5.04D-01
      K-S energy, electrons, error :    -36.400174383981  53.9999787664   -2.12D-05
@  2    -307.958405553        5.86828D+00    4.65D-01    2
      Virial theorem: -V/T =      1.994572
@    MULPOP   C       0.73; C      -0.08; C       1.18; C       0.40; C      -1.49; C       0.68; O       1.33; H      -0.30; H      -0.25; H      -0.52; 
@             H      -0.39; H      -0.35; H      -0.25; H      -0.23; H      -0.18; H      -0.09; H      -0.20; 
   2  Level shift: doubly occupied orbital energies shifted by -2.00D-01
 -----------------------------------------------------------------------------
   3  Screening settings (-IFTHRS, JTDIIS, DIFDEN, times)   -9    3    F  4.74D-01  4.73D-01
      K-S energy, electrons, error :    -36.429967580266  53.9999816617   -1.83D-05
@  3    -309.651837729        1.03839D+00   -1.69D+00    3
      Virial theorem: -V/T =      1.998646
@    MULPOP   C       0.94; C      -0.07; C       1.25; C       0.58; C       0.15; C       0.72; O      -0.51; H      -0.34; H      -0.27; H      -0.55; 
@             H      -0.41; H      -0.38; H      -0.30; H      -0.26; H      -0.22; H      -0.11; H      -0.23; 
   3  Level shift: doubly occupied orbital energies shifted by -5.00D-02
 -----------------------------------------------------------------------------
   4  Screening settings (-IFTHRS, JTDIIS, DIFDEN, times)   -9    4    F  4.78D-01  4.78D-01
      K-S energy, electrons, error :    -35.994544737735  53.9999817247   -1.83D-05
@  4    -309.707778411        5.58449D-01   -5.59D-02    4
      Virial theorem: -V/T =      2.009579
@    MULPOP   C       1.11; C       0.21; C       1.48; C       0.77; C       0.03; C       1.04; O      -0.53; H      -0.44; H      -0.36; H      -0.66; 
@             H      -0.51; H      -0.48; H      -0.39; H      -0.36; H      -0.33; H      -0.22; H      -0.35; 
   4  Level shift: doubly occupied orbital energies shifted by -5.00D-02
 -----------------------------------------------------------------------------
   5  Screening settings (-IFTHRS, JTDIIS, DIFDEN, times)  -10    5    F  4.74D-01  4.74D-01
      K-S energy, electrons, error :    -36.125881030658  53.9999817424   -1.83D-05
@  5    -309.725032597        9.53288D-02   -1.73D-02    5
      Virial theorem: -V/T =      2.006234
@    MULPOP   C       1.11; C       0.13; C       1.44; C       0.76; C       0.11; C       0.97; O      -0.62; H      -0.43; H      -0.35; H      -0.63; 
@             H      -0.49; H      -0.46; H      -0.38; H      -0.34; H      -0.31; H      -0.20; H      -0.32; 
   5  Level shift: doubly occupied orbital energies shifted by -1.25D-02
 -----------------------------------------------------------------------------
   6  Screening settings (-IFTHRS, JTDIIS, DIFDEN, times)  -10    6    F  4.79D-01  4.79D-01
      K-S energy, electrons, error :    -36.130660895261  53.9999821297   -1.79D-05
@  6    -309.725473100        2.98733D-02   -4.41D-04    6
      Virial theorem: -V/T =      2.006140
@    MULPOP   C       1.08; C       0.15; C       1.43; C       0.74; C       0.10; C       0.95; O      -0.60; H      -0.42; H      -0.34; H      -0.63; 
@             H      -0.49; H      -0.46; H      -0.37; H      -0.33; H      -0.30; H      -0.20; H      -0.32; 
 -----------------------------------------------------------------------------
   7  Screening settings (-IFTHRS, JTDIIS, DIFDEN, times)  -11    7    F  4.74D-01  4.73D-01
      K-S energy, electrons, error :    -36.128834955793  53.9999820543   -1.79D-05
@  7    -309.725518206        9.45941D-03   -4.51D-05    7
      Virial theorem: -V/T =      2.006193
@    MULPOP   C       1.09; C       0.14; C       1.43; C       0.74; C       0.09; C       0.96; O      -0.59; H      -0.42; H      -0.34; H      -0.63; 
@             H      -0.49; H      -0.46; H      -0.37; H      -0.33; H      -0.30; H      -0.20; H      -0.32; 
 -----------------------------------------------------------------------------
   8  Screening settings (-IFTHRS, JTDIIS, DIFDEN, times)  -11    8    F  4.75D-01  4.76D-01
      K-S energy, electrons, error :    -36.129068317690  53.9999820829   -1.79D-05
@  8    -309.725523321        2.08498D-03   -5.11D-06    8
      Virial theorem: -V/T =      2.006189
@    MULPOP   C       1.08; C       0.14; C       1.43; C       0.74; C       0.09; C       0.95; O      -0.59; H      -0.42; H      -0.34; H      -0.63; 
@             H      -0.49; H      -0.46; H      -0.37; H      -0.33; H      -0.30; H      -0.20; H      -0.32; 
 -----------------------------------------------------------------------------
   9  Screening settings (-IFTHRS, JTDIIS, DIFDEN, times)  -12    9    F  4.74D-01  4.79D-01
      K-S energy, electrons, error :    -36.129047522889  53.9999820827   -1.79D-05
@  9    -309.725523591        5.20526D-04   -2.70D-07    8
      Virial theorem: -V/T =      2.006189
@    MULPOP   C       1.08; C       0.14; C       1.43; C       0.74; C       0.09; C       0.95; O      -0.59; H      -0.42; H      -0.34; H      -0.63; 
@             H      -0.49; H      -0.46; H      -0.37; H      -0.33; H      -0.30; H      -0.20; H      -0.32; 
 -----------------------------------------------------------------------------
  10  Screening settings (-IFTHRS, JTDIIS, DIFDEN, times)  -12   10    F  4.72D-01  4.74D-01
      K-S energy, electrons, error :    -36.129051368829  53.9999820826   -1.79D-05
@ 10    -309.725523609        8.82530D-05   -1.76D-08    8
      Virial theorem: -V/T =      2.006189
@    MULPOP   C       1.08; C       0.14; C       1.43; C       0.74; C       0.09; C       0.95; O      -0.59; H      -0.42; H      -0.34; H      -0.63; 
@             H      -0.49; H      -0.46; H      -0.37; H      -0.33; H      -0.30; H      -0.20; H      -0.32; 
 -----------------------------------------------------------------------------
  11  Screening settings (-IFTHRS, JTDIIS, DIFDEN, times)  -12   11    F  4.83D-01  4.83D-01
      K-S energy, electrons, error :    -36.129050752119  53.9999820825   -1.79D-05
@ 11    -309.725523609        3.68644D-05   -4.34D-10    8
      Virial theorem: -V/T =      2.006189
@    MULPOP   C       1.08; C       0.14; C       1.43; C       0.74; C       0.09; C       0.95; O      -0.59; H      -0.42; H      -0.34; H      -0.63; 
@             H      -0.49; H      -0.46; H      -0.37; H      -0.33; H      -0.30; H      -0.20; H      -0.32; 
 -----------------------------------------------------------------------------
  12  Screening settings (-IFTHRS, JTDIIS, DIFDEN, times)  -12   12    F  4.75D-01  4.79D-01
      K-S energy, electrons, error :    -36.129050849339  53.9999820826   -1.79D-05
@ 12    -309.725523609        8.93000D-06   -8.30D-11    8

@ *** DIIS converged in  12 iterations !
@     Converged SCF energy, gradient:   -309.725523609263    8.93D-06
    - total time used in SIRFCK :              0.00 seconds


 *** SCF orbital energy analysis ***

 Only the 20 lowest virtual orbital energies printed in each symmetry.

 Number of electrons :   54
 Orbital occupations :   27

 Sym       Kohn-Sham orbital energies

1 A     -19.13745476   -10.27276803   -10.19931697   -10.19230315   -10.19144850
        -10.19073573   -10.18355797    -1.04464771    -0.84918038    -0.74744428
         -0.71548894    -0.66242382    -0.56922218    -0.53560777    -0.49293849
         -0.47296666    -0.44532048    -0.42318330    -0.41660358    -0.40458210
         -0.39683470    -0.37917869    -0.35112788    -0.34016092    -0.33536313
         -0.33207500    -0.24512513    -0.03028909    -0.01486955     0.00643265
          0.00709094     0.01104151     0.03039175     0.03174485     0.03269004
          0.03847319     0.04627758     0.06498255     0.06834570     0.07029645
          0.08370452     0.08808973     0.09020749     0.09551924     0.09895943
          0.10408995     0.10678643

    E(LUMO) :    -0.03028909 au (symmetry 1)
  - E(HOMO) :    -0.24512513 au (symmetry 1)
  ------------------------------------------
    gap     :     0.21483603 au

 --- Writing SIRIFC interface file

 CPU and wall time for SCF :      10.970      11.149


                       .-----------------------------------.
                       | --- Final results from SIRIUS --- |
                       `-----------------------------------'


@    Spin multiplicity:           1
@    Spatial symmetry:            1 ( irrep  A   in C1  )
@    Total charge of molecule:    0

@    Final DFT energy:           -309.725523609263                 
@    Nuclear repulsion:           308.025172226932
@    Electronic energy:          -617.750695836195

@    Final gradient norm:           0.000008929998

 
     Date and time (Linux)  : Tue May 12 20:35:47 2020
     Host name              : s73p20.deic.sdu.dk                      

File label for MO orbitals:  12May20   FOCKDIIS

 (Only coefficients > 0.0100 are printed.)

 Molecular orbitals for symmetry species 1  (A  )
 ------------------------------------------------

    Orbital        18       19       20       21       22       23       24
   2 C   :1s     0.0623  -0.0079  -0.0567  -0.0054   0.0115  -0.1390  -0.0636
   3 C   :1s    -0.0004  -0.0433   0.0410  -0.0584  -0.1828  -0.2042  -0.1838
   4 C   :1s    -0.3106   0.1779   0.1446   0.1839  -0.2053  -0.0892   0.1319
   5 C   :2px   -0.1963   0.0824  -0.0064  -0.0350  -0.1640   0.2543   0.1313
   6 C   :2py   -0.0963   0.0053   0.2689   0.0437  -0.2047  -0.3849   0.0269
   7 C   :2pz    0.2532  -0.0934   0.1379   0.1632   0.0601   0.0061   0.2346
   8 C   :2px   -0.1539   0.0812   0.0261  -0.0705  -0.0899  -0.0998  -0.1282
   9 C   :2py    0.1062   0.0004  -0.1997  -0.0789   0.0454   0.0951  -0.1683
  10 C   :2pz   -0.0741   0.0257  -0.0324  -0.0728   0.0575   0.1116  -0.0187
  11 C   :2px    0.0383  -0.0350  -0.0455  -0.0491   0.0077  -0.0293   0.0046
  12 C   :2py   -0.0836   0.0337  -0.0028   0.0058  -0.0513  -0.0254  -0.0227
  13 C   :2pz   -0.0083  -0.0006  -0.0598  -0.0427   0.0549   0.0599  -0.0577
  14 C   :3d2-  -0.0108   0.0048  -0.0043   0.0034  -0.0091   0.0085   0.0069
  16 C   :3d0    0.0075   0.0020   0.0025   0.0013  -0.0004  -0.0033   0.0141
  17 C   :3d1+   0.0065  -0.0112  -0.0036   0.0100   0.0046  -0.0027  -0.0005
  18 C   :3d2+  -0.0067  -0.0020   0.0117   0.0041  -0.0053  -0.0093   0.0105
  19 C   :3d2-  -0.0587  -0.0082   0.0125  -0.0319  -0.0324  -0.0506  -0.0360
  20 C   :3d1-  -0.0326  -0.0023   0.0782   0.0157  -0.0396  -0.0308   0.0371
  21 C   :3d0   -0.0449   0.0280  -0.0041  -0.0256  -0.0117   0.0135  -0.0215
  22 C   :3d1+  -0.0079  -0.0356  -0.0375   0.0052   0.0266  -0.0154   0.0118
  23 C   :3d2+  -0.0447   0.0327  -0.0241  -0.0298   0.0097   0.0010  -0.0182
  25 C   :1s    -0.0855  -0.1103   0.0327  -0.0268  -0.0060  -0.0221  -0.0315
  26 C   :1s    -0.1283   0.0364   0.0958  -0.0218  -0.0093  -0.1475  -0.1417
  27 C   :1s     0.5025  -0.6046  -0.0930  -0.2174  -0.0877  -0.3654   0.0796
  28 C   :2px    0.1799  -0.1193   0.1279  -0.0325   0.1035  -0.3524  -0.3151
  29 C   :2py    0.0471  -0.0276  -0.0280  -0.1569   0.0347   0.1963  -0.2234
  30 C   :2pz    0.1288   0.2274   0.1888  -0.1332  -0.0421   0.0505  -0.0140
  31 C   :2px   -0.2983   0.0338   0.1045  -0.0393  -0.0861   0.1393   0.2013
  32 C   :2py   -0.0652  -0.0217   0.0194   0.0237   0.0242  -0.0627   0.1159
  33 C   :2pz   -0.0912  -0.0766  -0.0973   0.0620   0.0216  -0.0851   0.0030
  34 C   :2px    0.1800  -0.1023   0.0210  -0.0849  -0.0601  -0.0538   0.0117
  35 C   :2py    0.0531  -0.0182   0.0365  -0.0084  -0.0640   0.0458   0.0013
  36 C   :2pz    0.0447   0.0548   0.0096   0.0079  -0.0064   0.0776  -0.0124
  37 C   :3d2-  -0.0067   0.0047   0.0065   0.0029   0.0074   0.0138   0.0023
  39 C   :3d0    0.0005  -0.0068   0.0005  -0.0035  -0.0066   0.0113   0.0167
  40 C   :3d1+   0.0031  -0.0068  -0.0026   0.0022   0.0041  -0.0105  -0.0002
  41 C   :3d2+  -0.0088   0.0052   0.0037  -0.0012   0.0028  -0.0108   0.0060
  42 C   :3d2-  -0.0189  -0.0012   0.0308   0.0118   0.0045  -0.0253   0.0030
  43 C   :3d1-   0.0119   0.0558   0.0131  -0.0112  -0.0157   0.0463  -0.0563
  44 C   :3d0    0.1065  -0.0733  -0.0245  -0.0185  -0.0210  -0.0309  -0.0300
  45 C   :3d1+   0.0097   0.0646  -0.0243   0.0044   0.0180  -0.0254  -0.0419
  46 C   :3d2+  -0.0366  -0.0245   0.0035  -0.0202   0.0335  -0.0195   0.0187
  48 C   :1s     0.0558   0.0166  -0.0012   0.0593   0.0836   0.0387  -0.0338
  49 C   :1s     0.1347  -0.0244  -0.0831   0.0400   0.1295   0.1129   0.0233
  50 C   :1s    -0.4875   0.0450   0.1642  -0.0830   0.3232   0.2329  -0.0935
  51 C   :2px   -0.1462   0.0273   0.1504  -0.0357   0.4006   0.1683   0.2130
  52 C   :2py   -0.0033   0.0712  -0.0585   0.1272  -0.2107  -0.1822   0.2466
  53 C   :2pz    0.0934   0.0842  -0.0057  -0.3620  -0.1213   0.0855  -0.1473
  54 C   :2px    0.1592   0.0426  -0.1027   0.1771  -0.1149  -0.0832  -0.0183
  55 C   :2py   -0.1556  -0.0385   0.1182  -0.0867   0.0829   0.0505  -0.0032
  56 C   :2pz   -0.0676  -0.1296   0.0342   0.1701  -0.0122  -0.1056   0.0668
  57 C   :2px   -0.0668  -0.0354   0.0360   0.0249   0.0239   0.0168   0.0191
  58 C   :2py    0.0690  -0.0189  -0.0135  -0.0014  -0.0766  -0.0442   0.0159
  59 C   :2pz    0.0071   0.0134  -0.0266   0.0627  -0.0367  -0.0823   0.0254
  60 C   :3d2-  -0.0085  -0.0043   0.0025  -0.0120   0.0016   0.0097  -0.0018
  63 C   :3d1+   0.0022  -0.0054  -0.0088   0.0003  -0.0107  -0.0104  -0.0021
  64 C   :3d2+  -0.0071   0.0029  -0.0032   0.0062   0.0035   0.0067   0.0164
  65 C   :3d2-  -0.0322  -0.0213   0.0099   0.0269  -0.0137  -0.0221   0.0158
  66 C   :3d1-  -0.0113   0.0168  -0.0170   0.0662  -0.0250  -0.0322  -0.0109
  67 C   :3d0   -0.0362  -0.0013   0.0239   0.0124   0.0198   0.0140   0.0060
  68 C   :3d1+  -0.0487  -0.0229   0.0221  -0.0254   0.0375   0.0298   0.0034
  69 C   :3d2+  -0.0131  -0.0057   0.0229  -0.0021   0.0072  -0.0067   0.0039
  71 C   :1s    -0.0805   0.0112   0.0338  -0.0094   0.0752   0.0841   0.0525
  72 C   :1s    -0.0107   0.0363  -0.0983   0.0641   0.1631   0.1690   0.1805
  73 C   :1s     0.2302   0.1791  -0.2369   0.1859  -0.1104  -0.0440   0.1913
  74 C   :2px    0.0464  -0.1249  -0.2409  -0.1624  -0.3367  -0.1818  -0.1435
  75 C   :2py   -0.2778  -0.2206   0.1704  -0.1489  -0.0091  -0.2078  -0.0571
  76 C   :2pz   -0.1888  -0.1558  -0.2228   0.0813   0.1861  -0.0219   0.2721
  77 C   :2px    0.1577   0.1845  -0.0341   0.1524   0.1140   0.1191   0.1094
  78 C   :2py    0.0689   0.0323   0.0504   0.0269  -0.0587  -0.0454  -0.0345
  79 C   :2pz    0.0363   0.0768   0.1241  -0.0927  -0.0400   0.0771  -0.1010
  80 C   :2px   -0.0263  -0.0070   0.0583  -0.0202   0.0072   0.0606  -0.0531
  81 C   :2py   -0.0068  -0.0212   0.0590  -0.0178   0.0165  -0.0124  -0.0568
  82 C   :2pz    0.0671   0.0317  -0.0258   0.0149  -0.0006   0.0437   0.0076
  83 C   :3d2-  -0.0131  -0.0063   0.0041  -0.0116   0.0027  -0.0032  -0.0069
  85 C   :3d0    0.0015   0.0047   0.0132  -0.0073  -0.0012   0.0102  -0.0087
  86 C   :3d1+  -0.0001  -0.0045  -0.0040   0.0028  -0.0112  -0.0034  -0.0050
  87 C   :3d2+  -0.0043  -0.0087   0.0073   0.0060   0.0111   0.0014  -0.0022
  88 C   :3d2-   0.0057  -0.0039   0.0568  -0.0252  -0.0033   0.0131  -0.0393
  89 C   :3d1-   0.0381   0.0301  -0.0198   0.0122   0.0245   0.0386   0.0266
  90 C   :3d0   -0.0218  -0.0269  -0.0344  -0.0103  -0.0046  -0.0291   0.0254
  91 C   :3d1+   0.0518   0.0175  -0.0282   0.0607   0.0168   0.0248   0.0537
  92 C   :3d2+  -0.0177  -0.0196   0.0185   0.0067  -0.0333  -0.0449   0.0032
  94 C   :1s     0.0007   0.0194  -0.0038   0.0424  -0.0855   0.0032   0.0625
  95 C   :1s     0.0341  -0.1410   0.1639   0.0548   0.0621  -0.0425   0.0966
  96 C   :1s    -0.0004  -0.0354   0.1323  -0.0909   0.2585   0.0983  -0.2439
  97 C   :2px    0.1501  -0.3446   0.1700   0.0979   0.2823   0.0226  -0.1316
  98 C   :2py    0.3081   0.0039  -0.3428   0.2146  -0.0288   0.1129  -0.0129
  99 C   :2pz   -0.2970  -0.1390   0.0309   0.1495  -0.1747   0.1365  -0.1856
 100 C   :2px   -0.0751   0.0925  -0.0788  -0.0990  -0.1116   0.0034  -0.0777
 101 C   :2py   -0.2183  -0.0194   0.1997  -0.1556  -0.1460  -0.1843  -0.1689
 102 C   :2pz    0.1551   0.0394  -0.0461   0.0396   0.1319   0.0872   0.1286
 103 C   :2px    0.0031  -0.0232  -0.0104   0.0234  -0.0304  -0.0435   0.0529
 104 C   :2py    0.0307  -0.0360   0.0051  -0.0342  -0.0100  -0.0548   0.0249
 105 C   :2pz   -0.0111  -0.0068   0.0107   0.0061  -0.0140  -0.0133   0.0027
 106 C   :3d2-   0.0040   0.0002  -0.0197  -0.0016  -0.0171  -0.0065  -0.0129
 107 C   :3d1-  -0.0043  -0.0022   0.0003  -0.0042   0.0107  -0.0090   0.0119
 108 C   :3d0    0.0082   0.0096   0.0004  -0.0025  -0.0090  -0.0041   0.0126
 109 C   :3d1+  -0.0095  -0.0007  -0.0033   0.0056  -0.0091   0.0217  -0.0182
 110 C   :3d2+   0.0089  -0.0119   0.0134   0.0137   0.0116  -0.0098  -0.0133
 111 C   :3d2-   0.0356  -0.0413  -0.0054  -0.0056   0.0529   0.0421   0.0271
 112 C   :3d1-  -0.0231   0.0343  -0.0330   0.0055  -0.0054   0.0049   0.0012
 113 C   :3d0    0.0248   0.0056   0.0110   0.0187   0.0042   0.0227   0.0109
 114 C   :3d1+  -0.0141  -0.0128   0.0150  -0.0271  -0.0318  -0.0423  -0.0356
 115 C   :3d2+  -0.0023   0.0848  -0.0269   0.0312   0.0046   0.0026   0.0485
 117 C   :1s     0.0015  -0.0098   0.0068   0.0029   0.0038   0.0026   0.0451
 118 C   :1s    -0.1462  -0.0405  -0.0359   0.0527   0.0086   0.0265   0.1380
 119 C   :1s     0.1077   0.1112  -0.0035   0.0116  -0.0620   0.1367  -0.0375
 120 C   :2px    0.0537  -0.3629   0.0703   0.0128  -0.2842   0.2260   0.2701
 121 C   :2py   -0.0435  -0.2157  -0.2789  -0.2986   0.1465  -0.0524   0.1204
 122 C   :2pz   -0.2820   0.1034  -0.1473   0.2640   0.0832  -0.0439   0.0470
 123 C   :2px   -0.1185   0.1824  -0.0788   0.0277   0.1799  -0.1508  -0.0918
 124 C   :2py   -0.0353   0.1217   0.1462   0.1824  -0.0876   0.0793  -0.0492
 125 C   :2pz    0.0310  -0.1327   0.0537  -0.1096  -0.0800   0.0657   0.1352
 126 C   :2px   -0.0070   0.0328  -0.0368   0.0033   0.0179   0.0164  -0.0205
 127 C   :2py    0.0122   0.0229   0.0248   0.0528  -0.0242  -0.0083   0.0056
 128 C   :2pz    0.0319   0.0078   0.0135  -0.0208  -0.0254   0.0318   0.0089
 131 C   :3d0   -0.0016  -0.0071   0.0008  -0.0032  -0.0087   0.0108   0.0162
 132 C   :3d1+  -0.0089   0.0012  -0.0061   0.0075   0.0073  -0.0109  -0.0038
 134 C   :3d2-  -0.0288   0.0269  -0.0356  -0.0367   0.0379  -0.0285  -0.0185
 135 C   :3d1-  -0.0108   0.0112   0.0199   0.0066  -0.0245   0.0202  -0.0031
 136 C   :3d0   -0.0141   0.0093  -0.0092   0.0103   0.0065  -0.0113   0.0076
 137 C   :3d1+   0.0035  -0.0410   0.0122  -0.0120  -0.0139   0.0102   0.0314
 138 C   :3d2+  -0.0162   0.0424   0.0216   0.0549   0.0136  -0.0139  -0.0289
 140 O   :1s    -0.0465   0.1087  -0.0869  -0.0024  -0.0590   0.0031   0.0065
 141 O   :1s    -0.0100   0.0377  -0.0449  -0.0072  -0.0549   0.0130   0.0003
 142 O   :1s    -0.0188   0.0400  -0.0881   0.0035  -0.1245   0.0048   0.0497
 143 O   :2px   -0.0697   0.1873  -0.3377   0.1003  -0.3048   0.1433  -0.1196
 144 O   :2py    0.3231  -0.1999  -0.1390   0.2185   0.1223   0.0028  -0.1638
 145 O   :2pz   -0.2139  -0.2724   0.1486   0.1918  -0.0317   0.2685  -0.3960
 146 O   :2px    0.0211  -0.0607   0.0624   0.0016   0.0628  -0.0093  -0.0025
 147 O   :2py   -0.0209   0.0254  -0.0147  -0.0016  -0.0185   0.0121   0.0123
 148 O   :2pz    0.0047   0.0242  -0.0188  -0.0044  -0.0116  -0.0019   0.0113
 149 O   :2px    0.0001   0.0103  -0.0010   0.0027   0.0072   0.0155  -0.0297
 150 O   :2py    0.0050  -0.0060  -0.0131   0.0229  -0.0006   0.0043  -0.0165
 151 O   :2pz   -0.0083  -0.0116   0.0032   0.0175  -0.0020   0.0366  -0.0320
 152 O   :3d2-  -0.0104   0.0065   0.0017  -0.0054  -0.0057   0.0001   0.0024
 156 O   :3d2+  -0.0019  -0.0015   0.0102  -0.0051   0.0056  -0.0042   0.0042
 157 O   :3d2-  -0.0046  -0.0048   0.0144  -0.0055   0.0016  -0.0073  -0.0026
 159 O   :3d0   -0.0022  -0.0118   0.0062   0.0007   0.0054   0.0008  -0.0056
 160 O   :3d1+   0.0101  -0.0014   0.0029  -0.0038   0.0097  -0.0043   0.0082
 162 H   :1s     0.0544   0.0285  -0.3460  -0.1021   0.1927   0.3236  -0.1811
 163 H   :1s    -0.0112   0.1146  -0.1597  -0.1216   0.0839   0.0605  -0.1414
 164 H   :1s    -0.0301  -0.0063  -0.0339  -0.0261  -0.0169   0.0171  -0.0428
 168 H   :2px   -0.0052  -0.0147   0.0033  -0.0075  -0.0067  -0.0236  -0.0008
 169 H   :2py    0.0104   0.0356  -0.0642  -0.0337   0.0444   0.0299  -0.0371
 170 H   :2pz   -0.0188   0.0117  -0.0036  -0.0157  -0.0079  -0.0016  -0.0149
 171 H   :1s     0.2480  -0.0807   0.0864   0.1528   0.0310   0.0079   0.2696
 172 H   :1s     0.0234  -0.0127   0.0118   0.0709  -0.0591  -0.0707  -0.0085
 173 H   :1s     0.0079   0.0140   0.0342   0.0366  -0.0203  -0.0290   0.0432
 177 H   :2px    0.0091   0.0028   0.0082  -0.0152  -0.0002   0.0170  -0.0050
 178 H   :2py    0.0070   0.0055  -0.0275   0.0041   0.0158   0.0115  -0.0002
 179 H   :2pz   -0.0132   0.0104  -0.0177  -0.0292   0.0282   0.0187  -0.0087
 180 H   :1s    -0.0669   0.2007   0.1014  -0.0880  -0.1120   0.2505   0.2237
 181 H   :1s    -0.1286   0.1358   0.0532   0.0101   0.0094   0.1250   0.0106
 182 H   :1s     0.0121  -0.0303   0.0117  -0.0270  -0.0203  -0.0358   0.0184
 186 H   :2px   -0.0435   0.0306   0.0213  -0.0037   0.0112   0.0401   0.0212
 187 H   :2py   -0.0137  -0.0003   0.0076   0.0139   0.0022  -0.0109   0.0151
 188 H   :2pz    0.0056  -0.0046  -0.0184   0.0159   0.0214  -0.0413  -0.0195
 189 H   :1s     0.1068   0.1180  -0.0047  -0.2712  -0.0997   0.0724  -0.0424
 190 H   :1s     0.1026   0.0758  -0.0756  -0.1161   0.0234   0.0670  -0.0328
 191 H   :1s    -0.0118  -0.0071   0.0027  -0.0372   0.0357   0.0456  -0.0296
 195 H   :2px    0.0101   0.0066   0.0046   0.0074  -0.0123  -0.0056  -0.0053
 196 H   :2py   -0.0022  -0.0236   0.0209   0.0034   0.0055  -0.0011   0.0066
 197 H   :2pz   -0.0300  -0.0259   0.0130   0.0616  -0.0088  -0.0309   0.0078
 198 H   :1s     0.0944  -0.0048  -0.1501   0.3081  -0.3080  -0.2864   0.0533
 199 H   :1s     0.0834   0.0334  -0.0297   0.2508  -0.0874  -0.1260  -0.0225
 200 H   :1s    -0.0174  -0.0047   0.0032   0.0420  -0.0006  -0.0228   0.0265
 204 H   :2px    0.0198   0.0009  -0.0045   0.0604  -0.0294  -0.0391  -0.0100
 205 H   :2py   -0.0270  -0.0168   0.0154  -0.0619   0.0297   0.0292   0.0063
 206 H   :2pz    0.0008  -0.0006   0.0007   0.0312  -0.0056  -0.0070   0.0017
 207 H   :1s    -0.2765  -0.2792  -0.0874  -0.2068  -0.1461  -0.2573  -0.0430
 208 H   :1s    -0.0808  -0.0456  -0.0412   0.0156  -0.0098  -0.0654  -0.0153
 209 H   :1s    -0.0233   0.0110  -0.0370  -0.0086  -0.0048  -0.0248   0.0243
 213 H   :2px    0.0210   0.0235   0.0032   0.0019   0.0161   0.0291   0.0067
 214 H   :2py    0.0263   0.0163   0.0032   0.0074   0.0051   0.0133   0.0196
 215 H   :2pz   -0.0035  -0.0001   0.0246  -0.0080  -0.0069  -0.0067  -0.0222
 216 H   :1s     0.1139   0.1598   0.3003  -0.0997  -0.1210   0.0943  -0.2659
 217 H   :1s     0.0206   0.0635   0.0223  -0.0606   0.0244   0.1163  -0.0470
 218 H   :1s     0.0339   0.0129  -0.0140   0.0123  -0.0121   0.0294  -0.0204
 222 H   :2px    0.0113  -0.0028  -0.0024   0.0180   0.0025   0.0071   0.0194
 223 H   :2py    0.0116   0.0028  -0.0069   0.0049   0.0085   0.0145   0.0131
 224 H   :2pz    0.0200   0.0333   0.0181  -0.0305   0.0003   0.0404  -0.0182
 225 H   :1s     0.0082   0.3101   0.2409   0.3184  -0.0544  -0.0041  -0.1954
 226 H   :1s    -0.0628   0.0545   0.0508   0.1542  -0.0028   0.0261  -0.0575
 227 H   :1s     0.0176   0.0267   0.0162   0.0482  -0.0150  -0.0048  -0.0054
 231 H   :2px   -0.0144   0.0229   0.0058   0.0153   0.0059  -0.0041  -0.0233
 232 H   :2py   -0.0067   0.0311   0.0309   0.0612  -0.0067   0.0065  -0.0244
 234 H   :1s     0.2590  -0.3087   0.1468  -0.2506  -0.2377   0.2003   0.1904
 235 H   :1s    -0.0118  -0.1087   0.0494  -0.0543  -0.1058   0.1235   0.1411
 236 H   :1s     0.0153  -0.0125   0.0408  -0.0266  -0.0280   0.0214   0.0241
 240 H   :2px   -0.0159   0.0223  -0.0200   0.0197   0.0166  -0.0174  -0.0190
 241 H   :2py   -0.0010   0.0023   0.0091   0.0146  -0.0091   0.0045  -0.0018
 242 H   :2pz    0.0188  -0.0524   0.0220  -0.0342  -0.0479   0.0447   0.0516
 243 H   :1s    -0.0308   0.1620  -0.2024  -0.2109   0.3242  -0.2532  -0.1608
 244 H   :1s    -0.0840   0.0419  -0.1015  -0.0740   0.0866  -0.1180  -0.0306
 245 H   :1s     0.0026   0.0000  -0.0422  -0.0366   0.0316  -0.0060  -0.0259
 249 H   :2px   -0.0187   0.0285  -0.0296  -0.0251   0.0405  -0.0451  -0.0263
 250 H   :2py    0.0053  -0.0024   0.0243   0.0261  -0.0183   0.0198   0.0014
 251 H   :2pz    0.0004  -0.0046  -0.0092  -0.0090   0.0108  -0.0143  -0.0025

    Orbital        25       26       27       28       29       30       31
   2 C   :1s    -0.0183  -0.0398   0.1174   0.0172  -0.1228  -0.0188  -0.0063
   3 C   :1s    -0.0884  -0.0589  -0.0375   0.0911  -0.0813  -0.0321   0.0046
   4 C   :1s    -0.1632  -0.1357   0.0720   0.1890  -1.5675   1.2007  -0.2093
   5 C   :2px    0.1945   0.1218   0.3040   0.0011  -0.0334  -0.0244   0.0008
   6 C   :2py   -0.0098  -0.1278   0.1291   0.0105   0.0487  -0.0144   0.0861
   7 C   :2pz    0.2269   0.0262  -0.1826   0.0120  -0.0498  -0.0950  -0.0421
   8 C   :2px   -0.0476  -0.0774  -0.0703   0.0543  -0.0052  -0.0660   0.0099
   9 C   :2py   -0.0613   0.1036  -0.1249   0.0742   0.0402  -0.1203  -0.0888
  10 C   :2pz   -0.1212   0.0268   0.0963   0.0026  -0.0860  -0.0268  -0.0133
  11 C   :2px    0.0303  -0.0670  -0.0467  -0.0641   0.1251  -0.3654   1.0205
  12 C   :2py   -0.0528  -0.0464   0.0185   0.0836  -0.0145   0.2982   0.2283
  13 C   :2pz   -0.0243   0.0317  -0.0000   0.0297   0.1238  -0.4045  -0.0582
  14 C   :3d2-   0.0006  -0.0055   0.0035   0.0105   0.0029   0.0015   0.0036
  15 C   :3d1-  -0.0046   0.0029   0.0023   0.0165   0.0006   0.0045  -0.0012
  16 C   :3d0    0.0152   0.0003   0.0007  -0.0347  -0.0004  -0.0087  -0.0020
  17 C   :3d1+   0.0139  -0.0060  -0.0040   0.0063   0.0044   0.0006   0.0027
  18 C   :3d2+  -0.0017  -0.0132   0.0034  -0.0044  -0.0040  -0.0046   0.0004
  19 C   :3d2-   0.0286  -0.0235  -0.0124   0.0071   0.0060  -0.0066   0.0339
  20 C   :3d1-  -0.0003  -0.0335   0.0285  -0.0080  -0.0158   0.0298   0.0326
  21 C   :3d0   -0.0497  -0.0157   0.0269   0.0144  -0.0113   0.0003   0.0179
  22 C   :3d1+   0.0215   0.0024   0.0080  -0.0134  -0.0154   0.0000  -0.0101
  23 C   :3d2+  -0.0407  -0.0266  -0.0036   0.0063  -0.0002   0.0084   0.0285
  25 C   :1s     0.0281   0.0181  -0.0049   0.0606  -0.0464  -0.0609  -0.0643
  26 C   :1s     0.0902  -0.0213   0.0179   0.0528  -0.0149   0.0538   0.1164
  27 C   :1s     0.6842  -0.0092  -0.1454  -1.2317   3.1724  -1.1397   4.5100
  28 C   :2px   -0.0453   0.0330  -0.1125  -0.0006   0.0672   0.0780   0.0569
  29 C   :2py    0.1943   0.4074   0.0796  -0.0534   0.0130   0.0200  -0.0185
  30 C   :2pz   -0.4488   0.1444   0.0333   0.0438  -0.1055   0.0008  -0.0854
  31 C   :2px    0.0353  -0.0624   0.1120  -0.0123  -0.0332  -0.0296   0.0277
  32 C   :2py   -0.0344  -0.1551   0.0322   0.0285   0.0144  -0.0000   0.1086
  33 C   :2pz    0.3751  -0.1342  -0.0283  -0.0394   0.1404  -0.0902   0.1874
  34 C   :2px    0.0264  -0.0087  -0.0415  -0.2171   0.7430  -0.7611   1.5751
  35 C   :2py    0.0434   0.0770   0.0425  -0.1638   0.0644  -0.3623   0.1481
  36 C   :2pz   -0.0942  -0.0491  -0.0264   0.2669  -1.1678  -0.9535  -1.3065
  37 C   :3d2-   0.0114   0.0095   0.0059   0.0006   0.0023  -0.0013  -0.0033
  38 C   :3d1-   0.0114  -0.0066   0.0029   0.0033  -0.0019   0.0007  -0.0010
  40 C   :3d1+   0.0206  -0.0100  -0.0082   0.0096  -0.0056  -0.0015  -0.0026
  41 C   :3d2+  -0.0084  -0.0124   0.0094  -0.0035   0.0021  -0.0007  -0.0015
  42 C   :3d2-   0.0152  -0.0070   0.0172  -0.0083   0.0014   0.0494   0.0316
  43 C   :3d1-  -0.0049   0.0273   0.0111   0.0224  -0.0133   0.0142   0.0009
  44 C   :3d0   -0.0285   0.0382  -0.0496  -0.0210   0.0139  -0.0510  -0.0135
  45 C   :3d1+  -0.0642   0.0272  -0.0062   0.0258  -0.0320   0.0190  -0.0428
  46 C   :3d2+   0.0386  -0.0093   0.0090  -0.0508  -0.0014   0.0256   0.0106
  48 C   :1s     0.0387   0.0729   0.0100  -0.0177  -0.1258  -0.0810   0.0420
  49 C   :1s    -0.0246   0.1448  -0.0220  -0.0064  -0.1050  -0.0828   0.0207
  50 C   :1s    -0.0007   0.1641   0.1881   0.8383  -1.5208   1.7058  -1.7517
  51 C   :2px   -0.0482  -0.1908   0.1218  -0.0076   0.0479  -0.0411  -0.0583
  52 C   :2py   -0.1910  -0.3547  -0.0131  -0.0176  -0.1028  -0.0523   0.0572
  53 C   :2pz    0.2597  -0.2426  -0.0321   0.0494  -0.0510  -0.1050   0.0200
  54 C   :2px   -0.0948   0.0708  -0.0695   0.0465   0.0469  -0.0697   0.0130
  55 C   :2py    0.0921   0.0454   0.0963   0.0204  -0.0409   0.0815   0.1662
  56 C   :2pz   -0.1870   0.1794  -0.0153  -0.0060  -0.0494  -0.0270  -0.0540
  57 C   :2px    0.0451   0.1063   0.0555  -0.0226   0.1572   0.2349  -0.3831
  58 C   :2py    0.0418  -0.0291  -0.0104  -0.2411  -0.0409  -0.8455   0.8011
  59 C   :2pz   -0.0622   0.0398  -0.0309  -0.1017   0.0355  -0.5327   0.2277
  60 C   :3d2-   0.0118   0.0044   0.0126  -0.0058  -0.0038  -0.0044  -0.0014
  61 C   :3d1-   0.0167  -0.0119  -0.0036  -0.0083   0.0038  -0.0011   0.0017
  62 C   :3d0    0.0066  -0.0189   0.0026  -0.0013   0.0017   0.0023   0.0026
  65 C   :3d2-   0.0004   0.0540   0.0071  -0.0531   0.0054   0.0227   0.0016
  66 C   :3d1-  -0.0072   0.0272  -0.0122   0.0059   0.0023  -0.0192  -0.0059
  67 C   :3d0   -0.0247   0.0363   0.0237   0.0113  -0.0003   0.0292   0.0034
  68 C   :3d1+   0.0322   0.0054   0.0229   0.0072  -0.0075   0.0314  -0.0063
  69 C   :3d2+   0.0333   0.0028   0.0155   0.0030   0.0207   0.0114   0.0542
  71 C   :1s    -0.0315   0.0226  -0.1204  -0.0071  -0.1092   0.0287   0.1273
  72 C   :1s    -0.0232   0.0790   0.0223  -0.0930  -0.1659   0.0447   0.0267
  73 C   :1s    -0.2738  -0.1470  -0.0829  -0.1329  -0.5742  -0.7556  -0.6424
  74 C   :2px    0.1267   0.1519  -0.1983   0.0249  -0.0482  -0.0438   0.0579
  75 C   :2py    0.0245   0.0936   0.3110   0.0073  -0.0247  -0.0117   0.1085
  76 C   :2pz   -0.1436   0.2216  -0.0523   0.0099   0.0558  -0.0793  -0.0703
  77 C   :2px   -0.0338  -0.0946   0.0223   0.0107   0.0195  -0.0760   0.0772
  78 C   :2py   -0.0637  -0.1564  -0.1425   0.0907  -0.1087  -0.0190   0.1046
  79 C   :2pz    0.0920  -0.1108   0.0609   0.0133  -0.0245  -0.0601  -0.0272
  80 C   :2px    0.0822   0.0237   0.0478   0.0998  -0.0038   0.1305   0.0581
  81 C   :2py    0.0216  -0.0321  -0.0063   0.0385  -0.0089  -0.0518   1.0346
  82 C   :2pz   -0.0183  -0.0886  -0.0242   0.0474   0.1111  -0.4339   0.0149
  83 C   :3d2-   0.0057   0.0152   0.0049  -0.0134   0.0042  -0.0012  -0.0015
  84 C   :3d1-   0.0023  -0.0004  -0.0021  -0.0259  -0.0035  -0.0072  -0.0031
  85 C   :3d0    0.0077  -0.0180   0.0018   0.0249   0.0032   0.0027   0.0024
  87 C   :3d2+  -0.0027   0.0032   0.0010   0.0106  -0.0005   0.0029   0.0025
  88 C   :3d2-   0.0208  -0.0192  -0.0131   0.0052  -0.0289   0.0229   0.0490
  89 C   :3d1-  -0.0206  -0.0457  -0.0118   0.0121  -0.0126  -0.0226  -0.0004
  90 C   :3d0   -0.0264   0.0237  -0.0262  -0.0006  -0.0033   0.0258  -0.0123
  91 C   :3d1+  -0.0235   0.0031  -0.0177   0.0007   0.0092  -0.0100  -0.0092
  92 C   :3d2+  -0.0279  -0.0145  -0.0175   0.0105  -0.0187   0.0006  -0.0109
  94 C   :1s    -0.0589  -0.0319   0.0004   0.0015  -0.0047  -0.0056  -0.0062
  95 C   :1s    -0.0825  -0.0484   0.0058   0.0059  -0.1811   0.0568   0.0025
  96 C   :1s     0.0869   0.1147   0.0104   0.2002  -0.7804  -0.2932  -0.0233
  97 C   :2px    0.0146  -0.0235  -0.0542   0.2400   0.0315   0.0582   0.0262
  98 C   :2py   -0.0453  -0.0364  -0.2244   0.2241   0.0205   0.0536  -0.0048
  99 C   :2pz   -0.0942  -0.1085   0.1016   0.6302   0.0748   0.1584   0.1069
 100 C   :2px    0.0497   0.0248  -0.0195   0.0551   0.0319  -0.0040   0.0291
 101 C   :2py   -0.0558  -0.0932  -0.0826   0.1250  -0.0154   0.0382   0.0920
 102 C   :2pz    0.0061   0.0365   0.0547   0.0575   0.0305   0.0759   0.0160
 103 C   :2px   -0.0380  -0.0096  -0.0365   0.0323   0.1592  -0.0245   0.3512
 104 C   :2py    0.0198  -0.0538  -0.1381   0.0420  -0.0353   0.0706   1.6047
 105 C   :2pz    0.0201   0.0501   0.0614   0.3187   0.0199   0.0306  -0.6496
 106 C   :3d2-   0.0018  -0.0008   0.0487  -0.0068  -0.0013  -0.0016   0.0026
 107 C   :3d1-  -0.0046   0.0087  -0.0055   0.0122   0.0091   0.0033  -0.0008
 108 C   :3d0    0.0127   0.0006   0.0105   0.0126   0.0042   0.0010  -0.0002
 109 C   :3d1+  -0.0090  -0.0115  -0.0265  -0.0268   0.0009  -0.0066  -0.0061
 110 C   :3d2+  -0.0089  -0.0147   0.0312  -0.0157   0.0030  -0.0009   0.0014
 111 C   :3d2-   0.0415   0.0394   0.0452  -0.0452  -0.0041   0.0232   0.0082
 112 C   :3d1-  -0.0174  -0.0139  -0.0014   0.0243   0.0202  -0.0207  -0.0184
 113 C   :3d0    0.0040   0.0054   0.0108   0.0167   0.0255  -0.0073  -0.0168
 114 C   :3d1+   0.0080  -0.0054  -0.0323  -0.0329   0.0099  -0.0239  -0.0338
 115 C   :3d2+  -0.0346  -0.0249   0.0293  -0.0362  -0.0028  -0.0023  -0.0012
 117 C   :1s     0.0931  -0.0564   0.0012   0.0194  -0.1552   0.1506  -0.0465
 118 C   :1s     0.1844  -0.1271   0.0240  -0.0125  -0.1627   0.1663   0.0760
 119 C   :1s    -0.2538  -0.0059  -0.0344   0.2851  -2.3764  -0.6399  -1.2748
 120 C   :2px    0.1119  -0.0456   0.0141   0.0310   0.0573  -0.0158   0.0784
 121 C   :2py   -0.0662  -0.2829  -0.0186   0.0152   0.0221  -0.0228   0.0806
 122 C   :2pz    0.3866  -0.1727  -0.0035   0.0038   0.0709  -0.1059  -0.0317
 123 C   :2px    0.1053  -0.0935   0.0030  -0.0121   0.0984  -0.0063   0.1327
 124 C   :2py    0.1468   0.1253   0.0329   0.0036   0.0300  -0.0090   0.1336
 125 C   :2pz   -0.0079  -0.0554   0.0179  -0.0173   0.0804  -0.1567  -0.0047
 126 C   :2px   -0.0254  -0.0120  -0.0153   0.0619  -0.2122  -0.5776   0.0640
 127 C   :2py   -0.0076   0.0078  -0.0024   0.0021  -0.1623  -0.3778   0.4471
 128 C   :2pz   -0.0342  -0.0051   0.0008   0.0417  -0.1406  -0.6641  -0.0382
 129 C   :3d2-   0.0115   0.0095   0.0022  -0.0018   0.0016  -0.0003  -0.0002
 132 C   :3d1+   0.0111  -0.0083  -0.0033   0.0011   0.0011  -0.0005   0.0001
 133 C   :3d2+  -0.0060  -0.0120  -0.0021  -0.0031  -0.0002  -0.0016   0.0045
 134 C   :3d2-   0.0084  -0.0351   0.0016   0.0029   0.0028   0.0067  -0.0169
 135 C   :3d1-   0.0242   0.0084   0.0079   0.0054   0.0033  -0.0006   0.0041
 136 C   :3d0    0.0049  -0.0029  -0.0098  -0.0116   0.0220  -0.0418   0.0263
 137 C   :3d1+   0.0102  -0.0145   0.0033  -0.0067   0.0002  -0.0258  -0.0029
 138 C   :3d2+   0.0364   0.0114   0.0060   0.0009   0.0040   0.0221  -0.0018
 140 O   :1s    -0.0041  -0.0046  -0.0005  -0.0001  -0.0256   0.0139   0.0308
 141 O   :1s     0.0114   0.0089  -0.0009  -0.0017   0.0007   0.0087   0.0034
 142 O   :1s    -0.0068  -0.0008  -0.0052  -0.0412   0.2191   0.0292  -0.0071
 143 O   :2px   -0.0649  -0.0852   0.1688  -0.1690  -0.0380  -0.0565  -0.0086
 144 O   :2py   -0.0431  -0.1075   0.6975  -0.1570  -0.0088  -0.0410   0.0144
 145 O   :2pz   -0.1871  -0.2308  -0.3054  -0.4470  -0.0517  -0.1473  -0.0700
 146 O   :2px    0.0046   0.0063   0.0007  -0.0136  -0.0148  -0.0100  -0.0025
 147 O   :2py   -0.0001   0.0055   0.0015  -0.0129   0.0057  -0.0149  -0.0074
 148 O   :2pz    0.0029   0.0052  -0.0002  -0.0376  -0.0037  -0.0223  -0.0075
 149 O   :2px    0.0034  -0.0087   0.0328  -0.0605  -0.1043   0.0018  -0.0340
 150 O   :2py   -0.0086  -0.0063   0.1239  -0.0741   0.0200  -0.0313  -0.2164
 151 O   :2pz   -0.0218  -0.0254  -0.0527  -0.2254  -0.0081  -0.0270   0.0240
 162 H   :1s    -0.0981   0.1309  -0.0294   0.1590   0.0197   0.0691  -0.0191
 163 H   :1s    -0.1653   0.0461  -0.1046   0.1611   0.0794  -0.2354  -0.1872
 164 H   :1s    -0.0321  -0.0080  -0.0227   0.3541   0.2868   0.0902   0.6338
 168 H   :2px    0.0173  -0.0060  -0.0033  -0.0176   0.0109   0.0111   0.0323
 169 H   :2py   -0.0402   0.0216  -0.0316   0.0043  -0.0328  -0.0607  -0.1046
 170 H   :2pz   -0.0242  -0.0083  -0.0007   0.0130  -0.0055   0.0250   0.0209
 171 H   :1s     0.3209   0.0375  -0.0703  -0.2275  -0.0054  -0.0823  -0.0236
 172 H   :1s     0.0976  -0.0048  -0.0996  -0.1277   0.2237   0.0641  -0.0578
 173 H   :1s     0.0372  -0.0087  -0.0209  -0.4889   0.2276   0.7129   0.1198
 177 H   :2px   -0.0292   0.0024   0.0124   0.0199   0.0069  -0.0078   0.0069
 178 H   :2py   -0.0009   0.0092  -0.0050   0.0236   0.0066   0.0163  -0.0483
 179 H   :2pz   -0.0365   0.0040   0.0212  -0.0276  -0.0152   0.0168   0.0081
 180 H   :1s    -0.4022   0.0664   0.1275  -0.0346  -0.0077   0.0264  -0.0105
 181 H   :1s    -0.2821   0.0473   0.0960   0.1424  -0.3081   0.1512  -0.4750
 182 H   :1s     0.0243   0.0289   0.0307  -0.3823   1.1740   0.9376   2.2684
 186 H   :2px   -0.0463   0.0029   0.0281   0.0256  -0.1046   0.0361  -0.1210
 187 H   :2py   -0.0138  -0.0033   0.0035  -0.0018  -0.0179   0.0280  -0.0415
 188 H   :2pz    0.0793  -0.0153  -0.0154  -0.0542   0.1036   0.0716   0.1486
 189 H   :1s     0.2306  -0.4104  -0.0176  -0.0233   0.0051  -0.0154   0.0251
 190 H   :1s     0.1285  -0.1908  -0.0224  -0.0704   0.1750   0.0040  -0.0583
 191 H   :1s     0.0473  -0.0534   0.0056   0.0583   0.4252   1.5854  -0.4132
 195 H   :2px   -0.0172   0.0050  -0.0043   0.0099   0.0025  -0.0237  -0.0250
 196 H   :2py   -0.0234   0.0300   0.0070  -0.0116   0.0123   0.0222   0.0018
 197 H   :2pz   -0.0449   0.0678  -0.0024  -0.0007   0.0016   0.0665   0.0150
 198 H   :1s    -0.2297   0.0804  -0.1150   0.0389  -0.0025   0.0148  -0.0022
 199 H   :1s    -0.1745   0.1537  -0.1163  -0.0275   0.1292  -0.1939  -0.2582
 200 H   :1s    -0.0346   0.0644  -0.0091   0.0910   0.5058   0.3560  -1.2077
 204 H   :2px   -0.0229   0.0302  -0.0222  -0.0102   0.0033  -0.0210  -0.0181
 205 H   :2py    0.0480  -0.0195   0.0295  -0.0038   0.0390   0.0442   0.0363
 206 H   :2pz   -0.0211   0.0279  -0.0045  -0.0180  -0.0023   0.0468   0.0020
 207 H   :1s     0.0532   0.2966   0.0363  -0.1787   0.0047  -0.0389   0.0056
 208 H   :1s    -0.0211   0.1523   0.0731  -0.1500   0.2823   0.0924  -0.3484
 209 H   :1s    -0.0388   0.0571   0.0209  -0.3997   0.1750   0.2218  -1.7747
 213 H   :2px    0.0057  -0.0398  -0.0098   0.0107  -0.0372  -0.0084   0.0116
 214 H   :2py   -0.0024  -0.0328  -0.0179  -0.0191  -0.0297  -0.0140  -0.0072
 215 H   :2pz    0.0155  -0.0087   0.0009  -0.0021   0.0007   0.0264   0.0292
 216 H   :1s     0.1354  -0.2699   0.0630   0.2208   0.0209   0.0501   0.0349
 217 H   :1s     0.1093  -0.1071   0.1103   0.1119   0.0887  -0.2512  -0.0885
 218 H   :1s     0.0136  -0.0664   0.0133   0.5009   0.3836  -0.8129  -0.5876
 222 H   :2px   -0.0039   0.0076  -0.0029  -0.0059  -0.0068   0.0133  -0.0120
 223 H   :2py   -0.0068  -0.0063  -0.0043   0.0283   0.0140   0.0168   0.0003
 224 H   :2pz    0.0383  -0.0473   0.0308  -0.0179  -0.0267  -0.0128   0.0241
 225 H   :1s     0.1373   0.2949   0.0155  -0.0223   0.0157   0.0174  -0.0295
 226 H   :1s     0.1507   0.0793   0.0145   0.0191   0.2082  -0.0878   0.2219
 227 H   :1s     0.0160   0.0191   0.0018  -0.0680   0.2545  -1.1013   1.1065
 231 H   :2px    0.0205   0.0085   0.0019   0.0224  -0.0129   0.0317  -0.0347
 232 H   :2py    0.0458   0.0414   0.0019  -0.0007   0.0089   0.0141   0.0239
 233 H   :2pz    0.0037   0.0029   0.0003   0.0093  -0.0135   0.0247  -0.0184
 234 H   :1s    -0.2512   0.0535   0.0263   0.0208  -0.0256  -0.0121   0.0185
 235 H   :1s    -0.0533  -0.0262   0.0282   0.0128   0.0430  -0.3206  -0.3769
 236 H   :1s    -0.0169   0.0146   0.0127   0.0359   0.0926  -0.9361  -0.4193
 240 H   :2px   -0.0006   0.0038  -0.0116  -0.0163  -0.0093  -0.0269  -0.0180
 241 H   :2py   -0.0026   0.0067  -0.0047   0.0126  -0.0028   0.0067  -0.0345
 242 H   :2pz   -0.0373   0.0021   0.0042  -0.0132  -0.0353  -0.0329  -0.0909
 243 H   :1s    -0.1566  -0.1560  -0.0409  -0.0142   0.0036   0.0121   0.0127
 244 H   :1s     0.0230  -0.1567  -0.0200   0.0100   0.2442  -0.1427  -0.0299
 245 H   :1s    -0.0129  -0.0326  -0.0240   0.0393   0.3853  -1.0416   0.1930
 249 H   :2px    0.0025  -0.0479  -0.0029   0.0112   0.0017   0.0079  -0.0403
 250 H   :2py    0.0069   0.0228   0.0039   0.0106  -0.0155   0.0216  -0.0511
 251 H   :2pz   -0.0050  -0.0157  -0.0033  -0.0045  -0.0086   0.0113  -0.0039

    Orbital        32       33       34       35       36       37
   2 C   :1s     0.1254  -0.0678   0.0130   0.0775  -0.0482  -0.0113
   3 C   :1s     0.0979  -0.0220   0.0266   0.1335  -0.1101  -0.1043
   4 C   :1s    -3.7928   0.0396   3.3102  -0.9701   0.1838  -8.4805
   5 C   :2px    0.0404  -0.0080  -0.0140  -0.0345   0.0250   0.0038
   6 C   :2py   -0.0867  -0.0108  -0.0431  -0.1037  -0.0263  -0.0633
   7 C   :2pz    0.0515  -0.1103  -0.0629  -0.0136  -0.0418  -0.0847
   8 C   :2px    0.0370  -0.1964   0.1213   0.1319   0.0238  -0.1774
   9 C   :2py   -0.0245   0.0521  -0.0879  -0.1688   0.1791   0.1951
  10 C   :2pz    0.0121  -0.1397  -0.0009  -0.0081  -0.1816  -0.1725
  11 C   :2px    0.3993   0.3299  -0.0390  -0.1660   0.2590  -0.4096
  12 C   :2py   -1.4743   0.0874   0.1452  -0.9267  -0.0724  -3.8528
  13 C   :2pz    0.9853  -0.9966  -1.3878   0.0128  -0.8955  -1.2205
  19 C   :3d2-   0.0201  -0.0278  -0.0088   0.0470   0.0340  -0.0567
  20 C   :3d1-  -0.0234   0.0300   0.0177  -0.0021  -0.0102  -0.0320
  21 C   :3d0   -0.0218  -0.0352   0.0235   0.0239  -0.0592  -0.1161
  22 C   :3d1+   0.0275  -0.0114  -0.0034  -0.0141  -0.0174  -0.0722
  23 C   :3d2+   0.0070   0.0325  -0.0174  -0.0016   0.0062  -0.0409
  25 C   :1s    -0.0305  -0.0341   0.0811  -0.0979   0.0498   0.0423
  26 C   :1s    -0.0011   0.0986  -0.0860   0.0694  -0.1010  -0.2612
  27 C   :1s     3.3537   0.2875  -4.1088   0.1441  -2.6895   0.3127
  28 C   :2px   -0.0048   0.0402  -0.0526   0.0159  -0.0004  -0.0473
  29 C   :2py    0.0363  -0.0312  -0.0438  -0.0363  -0.0546   0.0329
  30 C   :2pz   -0.0443   0.0017  -0.0004  -0.0746   0.0336  -0.0136
  31 C   :2px   -0.0186  -0.1385   0.2734   0.2314   0.0500  -0.1514
  32 C   :2py   -0.0151   0.2161   0.1400   0.1031   0.1546   0.0488
  33 C   :2pz    0.0920  -0.0519   0.1687   0.0785  -0.0203  -0.0192
  34 C   :2px    1.2065   0.6574  -1.2396   1.8412  -1.4685   0.4793
  35 C   :2py    0.4110  -0.6058   0.1892   0.3684  -0.9495  -0.5856
  36 C   :2pz   -0.4984  -0.8078   2.7733  -0.4003   1.4275   2.8764
  42 C   :3d2-  -0.0071   0.0682  -0.0397   0.0079  -0.0245  -0.0066
  43 C   :3d1-  -0.0300  -0.0052  -0.0391   0.0048  -0.0460   0.0138
  44 C   :3d0    0.0353   0.0133  -0.0645  -0.0401  -0.0146   0.0513
  45 C   :3d1+  -0.0087  -0.0009  -0.0642   0.0134   0.0041  -0.0947
  46 C   :3d2+   0.0120  -0.0091  -0.0513  -0.0278  -0.0299  -0.0493
  48 C   :1s    -0.0758   0.0472  -0.0310   0.1185   0.0592  -0.0208
  49 C   :1s     0.0152   0.0340  -0.0303   0.1148   0.1200  -0.1363
  50 C   :1s    -0.0665   2.0630   1.5406   0.8210   1.5808   5.6170
  51 C   :2px    0.0364   0.0301  -0.0585  -0.0545   0.0137  -0.0282
  52 C   :2py   -0.0766  -0.0240   0.0119   0.0131   0.0211  -0.0251
  53 C   :2pz    0.0455   0.0614  -0.1019  -0.0583   0.0542   0.0309
  54 C   :2px    0.1013  -0.0634   0.0320  -0.1566  -0.0118  -0.2073
  55 C   :2py   -0.0554   0.2196   0.1503   0.2773   0.1165   0.0062
  56 C   :2pz   -0.0114   0.1049  -0.1416   0.0421   0.1083   0.1894
  57 C   :2px    0.7704  -0.1705  -0.5034  -0.8374   0.3019   1.7139
  58 C   :2py   -0.2437  -0.9341  -0.1455   0.6836  -0.0600  -0.9449
  59 C   :2pz   -0.1221   0.3656  -1.9645  -0.5819   1.2938  -0.7634
  65 C   :3d2-   0.0132  -0.0331  -0.0507  -0.0401  -0.0384  -0.0106
  66 C   :3d1-  -0.0199   0.0168  -0.0288   0.0209   0.0263   0.0105
  67 C   :3d0    0.0140   0.0344   0.0130   0.0167   0.0740   0.0423
  68 C   :3d1+  -0.0161   0.0363  -0.0068   0.0397  -0.0329   0.0837
  69 C   :3d2+   0.0351   0.0330  -0.0014   0.0310  -0.0609  -0.0872
  71 C   :1s     0.1146  -0.0003   0.0501  -0.0780  -0.0149  -0.0261
  72 C   :1s     0.0091   0.1408   0.2171  -0.1352   0.0337   0.0671
  73 C   :1s    -1.2481  -0.6050   1.7010   0.6228   2.3200  -9.4140
  74 C   :2px    0.0026   0.0585  -0.0132   0.0048  -0.0278   0.0439
  75 C   :2py    0.0047   0.0660   0.0206  -0.0696  -0.0439  -0.0015
  76 C   :2pz    0.0096   0.0934  -0.0474   0.0385  -0.0893   0.0186
  77 C   :2px    0.1406  -0.0131   0.1118  -0.1092  -0.0878  -0.2420
  78 C   :2py   -0.0469   0.0470   0.1500   0.0064   0.0568  -0.0494
  79 C   :2pz   -0.0584   0.1353  -0.0935   0.0956  -0.0526   0.2908
  80 C   :2px    0.8811   0.1894   0.3961   0.2926  -1.7626   1.3130
  81 C   :2py    0.2733   0.8799  -0.5715  -0.8638  -1.5002   2.0583
  82 C   :2pz   -0.4148   0.6996  -0.0487   0.7141  -0.6674  -1.0617
  88 C   :3d2-  -0.0262   0.0033   0.0573  -0.0019  -0.0199  -0.0302
  89 C   :3d1-   0.0091  -0.0253  -0.0175   0.0162   0.0424  -0.0209
  90 C   :3d0   -0.0156  -0.0276   0.0399  -0.0069   0.1053  -0.0294
  91 C   :3d1+   0.0089  -0.0032   0.0191   0.0084  -0.0307  -0.0720
  92 C   :3d2+  -0.0336   0.0231   0.0365   0.0454   0.0009   0.0276
  94 C   :1s    -0.0278  -0.0227  -0.0487  -0.0115   0.0154   0.0570
  95 C   :1s    -0.1112  -0.0186   0.1494  -0.0359  -0.0466   0.0478
  96 C   :1s     2.9607  -2.2175  -1.7704  -0.9432  -1.9730  12.3617
  97 C   :2px    0.0053   0.0059   0.0515   0.0322   0.0146  -0.0728
  98 C   :2py    0.0025  -0.0345   0.0043   0.0049   0.0017   0.0121
  99 C   :2pz   -0.0232  -0.0339   0.0369   0.0786   0.0365  -0.0002
 100 C   :2px    0.0356  -0.0449   0.0373   0.0326   0.0574   0.0480
 101 C   :2py   -0.0752  -0.0088   0.0740   0.0664   0.1297  -0.0294
 102 C   :2pz    0.0114  -0.0186  -0.0423   0.0089  -0.0366  -0.0147
 103 C   :2px   -0.6859   0.9041   0.2894  -0.1070   0.4582  -2.9692
 104 C   :2py   -0.5188   0.8317   0.2514  -1.0449   0.2483   1.1738
 105 C   :2pz    0.4314  -0.5159   0.1503   0.7216   0.0973   1.0783
 111 C   :3d2-  -0.0235   0.0306  -0.0153  -0.0434  -0.0208   0.0360
 112 C   :3d1-   0.0027  -0.0189   0.0089  -0.0061   0.0129  -0.0595
 113 C   :3d0   -0.0384   0.0502   0.0123  -0.0065  -0.0398   0.0125
 114 C   :3d1+  -0.0069   0.0133   0.0217   0.0134   0.0591   0.0252
 115 C   :3d2+   0.0083   0.0108   0.0373   0.0081  -0.0145  -0.0270
 117 C   :1s    -0.0136   0.0220  -0.0883  -0.0352   0.0067  -0.0075
 118 C   :1s     0.0302   0.1187  -0.1476   0.0695  -0.1038  -0.0662
 119 C   :1s    -0.1597  -0.3052   0.1082   0.3055   0.5708   1.5385
 120 C   :2px    0.1056  -0.0154  -0.0190  -0.0159   0.1245  -0.0153
 121 C   :2py   -0.0858  -0.1361  -0.0544  -0.0072  -0.0447   0.0585
 122 C   :2pz   -0.0059   0.0547   0.0311  -0.0003  -0.0825  -0.0180
 123 C   :2px    0.0902  -0.0051   0.1959   0.1160   0.1490  -0.0595
 124 C   :2py   -0.1128  -0.1856   0.0574   0.0376  -0.0601   0.2102
 125 C   :2pz    0.0110  -0.0738   0.3885   0.0294   0.0787   0.0672
 126 C   :2px    0.5346  -0.3565   0.3508  -0.1457   1.2845  -0.1311
 127 C   :2py   -0.7018  -0.8412  -0.4166  -0.0713   0.0414   1.6206
 128 C   :2pz    0.2489   0.0943   0.5848   0.5036  -0.5151   0.0250
 134 C   :3d2-  -0.0084  -0.0329   0.0271   0.0080  -0.0156  -0.0547
 135 C   :3d1-   0.0152  -0.0217   0.0565   0.0213  -0.0069  -0.0022
 136 C   :3d0    0.0114  -0.0022   0.0552   0.0203   0.0208   0.0212
 137 C   :3d1+  -0.0101  -0.0175   0.0649   0.0011   0.0452   0.0352
 138 C   :3d2+  -0.0097   0.0082  -0.0027   0.0051   0.0074   0.0361
 140 O   :1s     0.0770  -0.0335  -0.0118  -0.0060  -0.0354   0.0871
 141 O   :1s     0.0199   0.0057  -0.0328  -0.0165  -0.0167   0.0923
 142 O   :1s    -0.3387   0.3781  -0.2174   0.0444   0.1661  -0.7584
 143 O   :2px    0.0070   0.0102  -0.0103  -0.0304  -0.0364   0.0353
 144 O   :2py   -0.0052   0.0328  -0.0070  -0.0809  -0.0256  -0.0246
 145 O   :2pz    0.0153   0.0194  -0.0632  -0.0251  -0.0943  -0.0368
 146 O   :2px    0.0089  -0.0081   0.0139  -0.0066  -0.0131  -0.0002
 147 O   :2py    0.0038   0.0014  -0.0146  -0.0011  -0.0015  -0.0051
 148 O   :2pz   -0.0051   0.0098  -0.0102  -0.0115  -0.0225  -0.0084
 149 O   :2px    0.1504  -0.2275   0.0505   0.0020  -0.0972   0.5419
 150 O   :2py    0.0085  -0.0437  -0.0999   0.0898  -0.0035  -0.1671
 151 O   :2pz   -0.0796   0.0871  -0.0788  -0.1495  -0.0235  -0.1646
 162 H   :1s     0.0045  -0.0167   0.0080  -0.0052   0.0000   0.0155
 163 H   :1s    -0.0738  -0.0287  -0.1250  -0.3572   0.2433   0.2033
 164 H   :1s    -1.4586  -0.3850  -1.3616  -2.6118  -0.5737  -4.7136
 168 H   :2px    0.0158   0.0564  -0.0432   0.0062   0.0085  -0.0895
 169 H   :2py    0.0213   0.0183   0.0435  -0.0082   0.0664   0.1116
 170 H   :2pz   -0.0074   0.0398  -0.0212   0.0094   0.0398   0.0332
 171 H   :1s     0.0321   0.0173   0.0019  -0.0147  -0.0267  -0.0162
 172 H   :1s    -0.0676   0.4125  -0.0550  -0.1631   0.5382   0.8469
 173 H   :1s    -1.7104   2.4212   1.5817  -0.5664   2.0503   3.4324
 177 H   :2px   -0.0390   0.0196   0.0265  -0.0068  -0.0011  -0.0395
 178 H   :2py    0.0074  -0.0378   0.0594   0.0309   0.0015   0.0176
 179 H   :2pz    0.0047  -0.0111   0.0400   0.0351  -0.0969  -0.0458
 180 H   :1s    -0.0059  -0.0113   0.0051   0.0044   0.0307   0.0014
 181 H   :1s    -0.2771  -0.1877   0.2314   0.1866   0.3260  -0.1011
 182 H   :1s     1.2202   1.1155  -3.6270   2.9441  -2.1631  -2.5382
 186 H   :2px   -0.0809  -0.0317   0.0574  -0.0575   0.0587   0.0625
 187 H   :2py    0.0149  -0.0083   0.0311  -0.0286  -0.0058  -0.0806
 188 H   :2pz    0.0514   0.0838  -0.1135   0.0095  -0.1221  -0.0429
 189 H   :1s     0.0004  -0.0310   0.0073   0.0194   0.0140   0.0255
 190 H   :1s    -0.0075  -0.4516   0.2254  -0.3225  -0.4802  -0.3628
 191 H   :1s     0.4107  -1.3433   3.6064  -0.0579  -2.7868   0.1346
 195 H   :2px   -0.0383  -0.0044   0.0296   0.0248   0.0519   0.0474
 196 H   :2py    0.0504  -0.0080  -0.0121   0.0014  -0.0214   0.0095
 197 H   :2pz   -0.0187   0.0466   0.0322   0.0973   0.0478   0.0565
 198 H   :1s    -0.0328   0.0342   0.0044   0.0028   0.0040  -0.0031
 199 H   :1s     0.1171  -0.3223  -0.2759  -0.6249  -0.0227  -0.0832
[...]


 Second order moment in a.u. for
 A operator label,  symmetry, spin:      XDIPLEN     1    0
 B operator label,  symmetry, spin:      YDIPLEN     1    0
 Excited state no., symmetry, spin:            27    1    0

 omega B, excitation energy, moment :    0.156527    0.313054    4.338250


 Second order moment in a.u. for
 A operator label,  symmetry, spin:      YDIPLEN     1    0
 B operator label,  symmetry, spin:      YDIPLEN     1    0
 Excited state no., symmetry, spin:            27    1    0

 omega B, excitation energy, moment :    0.156527    0.313054   14.105099


 Second order moment in a.u. for
 A operator label,  symmetry, spin:      ZDIPLEN     1    0
 B operator label,  symmetry, spin:      YDIPLEN     1    0
 Excited state no., symmetry, spin:            27    1    0

 omega B, excitation energy, moment :    0.156527    0.313054    5.333093


 Second order moment in a.u. for
 A operator label,  symmetry, spin:      XDIPLEN     1    0
 B operator label,  symmetry, spin:      ZDIPLEN     1    0
 Excited state no., symmetry, spin:            27    1    0

 omega B, excitation energy, moment :    0.156527    0.313054   -2.057328


 Second order moment in a.u. for
 A operator label,  symmetry, spin:      YDIPLEN     1    0
 B operator label,  symmetry, spin:      ZDIPLEN     1    0
 Excited state no., symmetry, spin:            27    1    0

 omega B, excitation energy, moment :    0.156527    0.313054    5.333093


 Second order moment in a.u. for
 A operator label,  symmetry, spin:      ZDIPLEN     1    0
 B operator label,  symmetry, spin:      ZDIPLEN     1    0
 Excited state no., symmetry, spin:            27    1    0

 omega B, excitation energy, moment :    0.156527    0.313054    0.783434


 Second order moment in a.u. for
 A operator label,  symmetry, spin:      XDIPLEN     1    0
 B operator label,  symmetry, spin:      XDIPLEN     1    0
 Excited state no., symmetry, spin:            28    1    0

 omega B, excitation energy, moment :    0.156933    0.313865   -2.274730


 Second order moment in a.u. for
 A operator label,  symmetry, spin:      YDIPLEN     1    0
 B operator label,  symmetry, spin:      XDIPLEN     1    0
 Excited state no., symmetry, spin:            28    1    0

 omega B, excitation energy, moment :    0.156933    0.313865    0.512621


 Second order moment in a.u. for
 A operator label,  symmetry, spin:      ZDIPLEN     1    0
 B operator label,  symmetry, spin:      XDIPLEN     1    0
 Excited state no., symmetry, spin:            28    1    0

 omega B, excitation energy, moment :    0.156933    0.313865   -8.894278


 Second order moment in a.u. for
 A operator label,  symmetry, spin:      XDIPLEN     1    0
 B operator label,  symmetry, spin:      YDIPLEN     1    0
 Excited state no., symmetry, spin:            28    1    0

 omega B, excitation energy, moment :    0.156933    0.313865    0.512621


 Second order moment in a.u. for
 A operator label,  symmetry, spin:      YDIPLEN     1    0
 B operator label,  symmetry, spin:      YDIPLEN     1    0
 Excited state no., symmetry, spin:            28    1    0

 omega B, excitation energy, moment :    0.156933    0.313865  -10.511707


 Second order moment in a.u. for
 A operator label,  symmetry, spin:      ZDIPLEN     1    0
 B operator label,  symmetry, spin:      YDIPLEN     1    0
 Excited state no., symmetry, spin:            28    1    0

 omega B, excitation energy, moment :    0.156933    0.313865   -3.223849


 Second order moment in a.u. for
 A operator label,  symmetry, spin:      XDIPLEN     1    0
 B operator label,  symmetry, spin:      ZDIPLEN     1    0
 Excited state no., symmetry, spin:            28    1    0

 omega B, excitation energy, moment :    0.156933    0.313865   -8.894277


 Second order moment in a.u. for
 A operator label,  symmetry, spin:      YDIPLEN     1    0
 B operator label,  symmetry, spin:      ZDIPLEN     1    0
 Excited state no., symmetry, spin:            28    1    0

 omega B, excitation energy, moment :    0.156933    0.313865   -3.223849


 Second order moment in a.u. for
 A operator label,  symmetry, spin:      ZDIPLEN     1    0
 B operator label,  symmetry, spin:      ZDIPLEN     1    0
 Excited state no., symmetry, spin:            28    1    0

 omega B, excitation energy, moment :    0.156933    0.313865   -9.596104


 Second order moment in a.u. for
 A operator label,  symmetry, spin:      XDIPLEN     1    0
 B operator label,  symmetry, spin:      XDIPLEN     1    0
 Excited state no., symmetry, spin:            29    1    0

 omega B, excitation energy, moment :    0.157722    0.315443    0.886129


 Second order moment in a.u. for
 A operator label,  symmetry, spin:      YDIPLEN     1    0
 B operator label,  symmetry, spin:      XDIPLEN     1    0
 Excited state no., symmetry, spin:            29    1    0

 omega B, excitation energy, moment :    0.157722    0.315443   -0.243339


 Second order moment in a.u. for
 A operator label,  symmetry, spin:      ZDIPLEN     1    0
 B operator label,  symmetry, spin:      XDIPLEN     1    0
 Excited state no., symmetry, spin:            29    1    0

 omega B, excitation energy, moment :    0.157722    0.315443   -2.002903


 Second order moment in a.u. for
 A operator label,  symmetry, spin:      XDIPLEN     1    0
 B operator label,  symmetry, spin:      YDIPLEN     1    0
 Excited state no., symmetry, spin:            29    1    0

 omega B, excitation energy, moment :    0.157722    0.315443   -0.243338


 Second order moment in a.u. for
 A operator label,  symmetry, spin:      YDIPLEN     1    0
 B operator label,  symmetry, spin:      YDIPLEN     1    0
 Excited state no., symmetry, spin:            29    1    0

 omega B, excitation energy, moment :    0.157722    0.315443    6.598815


 Second order moment in a.u. for
 A operator label,  symmetry, spin:      ZDIPLEN     1    0
 B operator label,  symmetry, spin:      YDIPLEN     1    0
 Excited state no., symmetry, spin:            29    1    0

 omega B, excitation energy, moment :    0.157722    0.315443   -0.803516


 Second order moment in a.u. for
 A operator label,  symmetry, spin:      XDIPLEN     1    0
 B operator label,  symmetry, spin:      ZDIPLEN     1    0
 Excited state no., symmetry, spin:            29    1    0

 omega B, excitation energy, moment :    0.157722    0.315443   -2.002903


 Second order moment in a.u. for
 A operator label,  symmetry, spin:      YDIPLEN     1    0
 B operator label,  symmetry, spin:      ZDIPLEN     1    0
 Excited state no., symmetry, spin:            29    1    0

 omega B, excitation energy, moment :    0.157722    0.315443   -0.803516


 Second order moment in a.u. for
 A operator label,  symmetry, spin:      ZDIPLEN     1    0
 B operator label,  symmetry, spin:      ZDIPLEN     1    0
 Excited state no., symmetry, spin:            29    1    0

 omega B, excitation energy, moment :    0.157722    0.315443   -3.519793


 Second order moment in a.u. for
 A operator label,  symmetry, spin:      XDIPLEN     1    0
 B operator label,  symmetry, spin:      XDIPLEN     1    0
 Excited state no., symmetry, spin:            30    1    0

 omega B, excitation energy, moment :    0.158197    0.316393    4.061514


 Second order moment in a.u. for
 A operator label,  symmetry, spin:      YDIPLEN     1    0
 B operator label,  symmetry, spin:      XDIPLEN     1    0
 Excited state no., symmetry, spin:            30    1    0

 omega B, excitation energy, moment :    0.158197    0.316393    1.530517


 Second order moment in a.u. for
 A operator label,  symmetry, spin:      ZDIPLEN     1    0
 B operator label,  symmetry, spin:      XDIPLEN     1    0
 Excited state no., symmetry, spin:            30    1    0

 omega B, excitation energy, moment :    0.158197    0.316393   -0.303169


 Second order moment in a.u. for
 A operator label,  symmetry, spin:      XDIPLEN     1    0
 B operator label,  symmetry, spin:      YDIPLEN     1    0
 Excited state no., symmetry, spin:            30    1    0

 omega B, excitation energy, moment :    0.158197    0.316393    1.530517


 Second order moment in a.u. for
 A operator label,  symmetry, spin:      YDIPLEN     1    0
 B operator label,  symmetry, spin:      YDIPLEN     1    0
 Excited state no., symmetry, spin:            30    1    0

 omega B, excitation energy, moment :    0.158197    0.316393   -3.326333


 Second order moment in a.u. for
 A operator label,  symmetry, spin:      ZDIPLEN     1    0
 B operator label,  symmetry, spin:      YDIPLEN     1    0
 Excited state no., symmetry, spin:            30    1    0

 omega B, excitation energy, moment :    0.158197    0.316393   -4.266003


 Second order moment in a.u. for
 A operator label,  symmetry, spin:      XDIPLEN     1    0
 B operator label,  symmetry, spin:      ZDIPLEN     1    0
 Excited state no., symmetry, spin:            30    1    0

 omega B, excitation energy, moment :    0.158197    0.316393   -0.303169


 Second order moment in a.u. for
 A operator label,  symmetry, spin:      YDIPLEN     1    0
 B operator label,  symmetry, spin:      ZDIPLEN     1    0
 Excited state no., symmetry, spin:            30    1    0

 omega B, excitation energy, moment :    0.158197    0.316393   -4.266003


 Second order moment in a.u. for
 A operator label,  symmetry, spin:      ZDIPLEN     1    0
 B operator label,  symmetry, spin:      ZDIPLEN     1    0
 Excited state no., symmetry, spin:            30    1    0

 omega B, excitation energy, moment :    0.158197    0.316393    2.875351


       *******************************************************************
       ************ FINAL RESULTS FROM TWO-PHOTON CALCULATION ************
       *******************************************************************

 The two-photon absorption strength for an average molecular  
 orientation is computed according to formulas given by       
 P.R. Monson and W.M. McClain in J. Chem. Phys. 53:29, 1970   
 and W.M. McClain in J. Chem. Phys. 55:2789, 1971.            
 The absorption depends on the light polarization.            
 A monochromatic light source is assumed.                     

 All results are presented in atomic units, except the        
 excitation energy which is given in eV and two-photon cross  
 section which is given in GM. A FWHM of 0.1 eV is assumed.   

   Conversion factors:
      1 a.u. = 1.896788 10^{-50} cm^4 s/photon
      1 GM = 10^{-50} cm^4 s/photon


                  +--------------------------------+
                  | Two-photon transition tensor S |
                  +--------------------------------+
     ---------------------------------------------------------------------------------
     Sym  No  Energy        Sxx        Syy        Szz        Sxy        Sxz        Syz
     ---------------------------------------------------------------------------------
       1   1    4.13    -0.8    -1.0     1.9    -0.4    -0.0    -1.3
       1   2    5.58    -1.6    -1.5    -0.1     3.6    -1.4     1.1
       1   3    6.14     0.7    -6.8   -13.5    -3.1     2.2     8.6
       1   4    6.24     6.1    21.1     1.4     7.7    -1.0    -4.4
       1   5    6.31    -6.8    16.3     6.1     2.1     0.1    -6.9
       1   6    6.86     3.6     6.8     2.2    -3.9     3.2    -2.5
       1   7    6.89    11.3    19.0     3.9     1.0    -1.9    -2.9
       1   8    6.92    -9.1   -11.6    -7.2     0.4     3.2     5.8
       1   9    7.08    -3.2     0.7    -9.0    10.5    -4.7     5.6
       1  10    7.20     7.5    -9.9     8.1    11.3    -6.6    -4.7
       1  11    7.28    -0.9    -2.8     0.1     2.9    -1.2    -2.1
       1  12    7.36     1.9    -2.4     0.0     2.9    -3.5     0.2
       1  13    7.54     5.2    -1.3    -4.6     0.1    -3.4     1.3
       1  14    7.73     4.3     0.4     1.0     3.5    -4.0     0.9
       1  15    7.83     2.7     2.9    -6.3     3.2    -0.2    -0.3
       1  16    7.89     3.6     0.5     1.8     2.9    -3.7    -6.5
       1  17    7.91    -4.4    -4.2    -0.9     3.5     0.1     0.7
       1  18    7.95     2.5    -2.4     4.3     0.9     0.2    -0.5
       1  19    8.00    -2.0    -1.3     7.3    -3.5    -3.4    -7.1
       1  20    8.09     4.8     1.4    -4.8    -1.1     5.0     0.4
       1  21    8.24     5.9    22.4     0.6   -13.2    -0.2    -2.7
       1  22    8.25    37.3    -0.9     1.8     8.2   -11.0    -2.2
       1  23    8.31    -9.5     8.2    -2.0    -4.8    -2.2     4.8
       1  24    8.36     1.9    -0.8    -7.9    -3.0     2.3     0.3
       1  25    8.43     0.7     3.9     2.7    -1.8    -0.2    -5.1
       1  26    8.46     2.4     5.6    10.7     5.8     1.6     8.8
       1  27    8.52    -1.7    14.1     0.8     4.3    -2.1     5.3
       1  28    8.54    -2.3   -10.5    -9.6     0.5    -8.9    -3.2
       1  29    8.58     0.9     6.6    -3.5    -0.2    -2.0    -0.8
       1  30    8.61     4.1    -3.3     2.9     1.5    -0.3    -4.3
     ------------------------------------------------------------------------


                    Transition probabilities (a.u.)         
                   -----------------------------------------
                    D  =  2*Df + 4*Dg, Linear   polarization
                    D  = -2*Df + 6*Dg, Circular polarization
                    Df = sum(i,j){ S_ii * S_jj }/30         
                    Dg = sum(i,j){ S_ij * S_ij }/30         

                   Two-photon cross sections                
         ---------------------------------------------------
          sigma  =  8*pi^3*alpha^2*hbar/e^4 * E^2*D   (a.u.)

                             Polarization ratio      
                      -------------------------------
                          R  = (-Df+3*Dg)/(Df+2*Dg)  


                   +-----------------------------------+
                   |   Two-photon absorption summary   |
                   +-----------------------------------+
   ---------------------------------------------------------------------------------
   Sym  No  Energy  Polarization         Df         Dg          D      sigma       R
   ---------------------------------------------------------------------------------
     1   1    4.13   Linear       0.370E-05  0.297E+00  0.119E+01  0.149E-01    1.50
     1   1    4.13   Circular     0.370E-05  0.297E+00  0.178E+01  0.223E-01    1.50
     1   2    5.58   Linear       0.353E+00  0.125E+01  0.570E+01  0.130E+00    1.19
     1   2    5.58   Circular     0.353E+00  0.125E+01  0.679E+01  0.155E+00    1.19
     1   3    6.14   Linear       0.127E+02  0.135E+02  0.794E+02  0.219E+01    0.70
     1   3    6.14   Circular     0.127E+02  0.135E+02  0.555E+02  0.153E+01    0.70
     1   4    6.24   Linear       0.274E+02  0.215E+02  0.141E+03  0.402E+01    0.53
     1   4    6.24   Circular     0.274E+02  0.215E+02  0.744E+02  0.212E+01    0.53
     1   5    6.31   Linear       0.807E+01  0.151E+02  0.765E+02  0.223E+01    0.97
     1   5    6.31   Circular     0.807E+01  0.151E+02  0.745E+02  0.217E+01    0.97
     1   6    6.86   Linear       0.533E+01  0.425E+01  0.277E+02  0.954E+00    0.54
     1   6    6.86   Circular     0.533E+01  0.425E+01  0.148E+02  0.512E+00    0.54
     1   7    6.89   Linear       0.390E+02  0.176E+02  0.149E+03  0.517E+01    0.19
     1   7    6.89   Circular     0.390E+02  0.176E+02  0.278E+02  0.968E+00    0.19
     1   8    6.92   Linear       0.260E+02  0.119E+02  0.998E+02  0.350E+01    0.20
     1   8    6.92   Circular     0.260E+02  0.119E+02  0.195E+02  0.684E+00    0.20
     1   9    7.08   Linear       0.436E+01  0.139E+02  0.645E+02  0.237E+01    1.16
     1   9    7.08   Circular     0.436E+01  0.139E+02  0.749E+02  0.275E+01    1.16
     1  10    7.20   Linear       0.107E+01  0.202E+02  0.830E+02  0.315E+01    1.44
     1  10    7.20   Circular     0.107E+01  0.202E+02  0.119E+03  0.452E+01    1.44
     1  11    7.28   Linear       0.424E+00  0.124E+01  0.583E+01  0.227E+00    1.14
     1  11    7.28   Circular     0.424E+00  0.124E+01  0.662E+01  0.257E+00    1.14
     1  12    7.36   Linear       0.836E-02  0.166E+01  0.667E+01  0.265E+00    1.49
     1  12    7.36   Circular     0.836E-02  0.166E+01  0.997E+01  0.395E+00    1.49
     1  13    7.54   Linear       0.157E-01  0.252E+01  0.101E+02  0.421E+00    1.49
     1  13    7.54   Circular     0.157E-01  0.252E+01  0.151E+02  0.629E+00    1.49
     1  14    7.73   Linear       0.107E+01  0.256E+01  0.124E+02  0.542E+00    1.07
     1  14    7.73   Circular     0.107E+01  0.256E+01  0.132E+02  0.579E+00    1.07
     1  15    7.83   Linear       0.161E-01  0.254E+01  0.102E+02  0.459E+00    1.49
     1  15    7.83   Circular     0.161E-01  0.254E+01  0.152E+02  0.684E+00    1.49
     1  16    7.89   Linear       0.118E+01  0.485E+01  0.218E+02  0.992E+00    1.23
     1  16    7.89   Circular     0.118E+01  0.485E+01  0.268E+02  0.122E+01    1.23
     1  17    7.91   Linear       0.298E+01  0.212E+01  0.144E+02  0.662E+00    0.47
     1  17    7.91   Circular     0.298E+01  0.212E+01  0.677E+01  0.310E+00    0.47
     1  18    7.95   Linear       0.648E+00  0.109E+01  0.566E+01  0.262E+00    0.93
     1  18    7.95   Circular     0.648E+00  0.109E+01  0.526E+01  0.243E+00    0.93
     1  19    8.00   Linear       0.522E+00  0.694E+01  0.288E+02  0.135E+01    1.41
     1  19    8.00   Circular     0.522E+00  0.694E+01  0.406E+02  0.190E+01    1.41
     1  20    8.09   Linear       0.654E-01  0.333E+01  0.135E+02  0.646E+00    1.48
     1  20    8.09   Circular     0.654E-01  0.333E+01  0.199E+02  0.953E+00    1.48
     1  21    8.24   Linear       0.279E+02  0.300E+02  0.176E+03  0.875E+01    0.71
     1  21    8.24   Circular     0.279E+02  0.300E+02  0.124E+03  0.617E+01    0.71
     1  22    8.25   Linear       0.486E+02  0.594E+02  0.335E+03  0.167E+02    0.77
     1  22    8.25   Circular     0.486E+02  0.594E+02  0.259E+03  0.129E+02    0.77
     1  23    8.31   Linear       0.360E+00  0.871E+01  0.356E+02  0.180E+01    1.45
     1  23    8.31   Circular     0.360E+00  0.871E+01  0.515E+02  0.261E+01    1.45
     1  24    8.36   Linear       0.156E+01  0.320E+01  0.159E+02  0.814E+00    1.01
     1  24    8.36   Circular     0.156E+01  0.320E+01  0.161E+02  0.823E+00    1.01
     1  25    8.43   Linear       0.178E+01  0.274E+01  0.145E+02  0.756E+00    0.89
     1  25    8.43   Circular     0.178E+01  0.274E+01  0.129E+02  0.671E+00    0.89
     1  26    8.46   Linear       0.118E+02  0.126E+02  0.740E+02  0.388E+01    0.71
     1  26    8.46   Circular     0.118E+02  0.126E+02  0.523E+02  0.274E+01    0.71
     1  27    8.52   Linear       0.579E+01  0.102E+02  0.523E+02  0.278E+01    0.95
     1  27    8.52   Circular     0.579E+01  0.102E+02  0.495E+02  0.263E+01    0.95
     1  28    8.54   Linear       0.167E+02  0.129E+02  0.850E+02  0.454E+01    0.52
     1  28    8.54   Circular     0.167E+02  0.129E+02  0.441E+02  0.235E+01    0.52
     1  29    8.58   Linear       0.524E+00  0.221E+01  0.987E+01  0.533E+00    1.23
     1  29    8.58   Circular     0.524E+00  0.221E+01  0.122E+02  0.658E+00    1.23
     1  30    8.61   Linear       0.435E+00  0.257E+01  0.111E+02  0.605E+00    1.31
     1  30    8.61   Circular     0.435E+00  0.257E+01  0.145E+02  0.790E+00    1.31
   ---------------------------------------------------------------------------------

  Total CPU  time used in RESPONSE:  5 minutes 18 seconds
  Total wall time used in RESPONSE:  5 minutes 18 seconds


                   .-------------------------------------------.
                   | End of Dynamic Property Section (RESPONS) |
                   `-------------------------------------------'

  Total CPU  time used in DALTON:  5 minutes 30 seconds
  Total wall time used in DALTON:  5 minutes 31 seconds

 
     Date and time (Linux)  : Tue May 12 20:41:06 2020
     Host name              : s73p20.deic.sdu.dk                      
