

     ************************************************************************
     *************** Dalton - An Electronic Structure Program ***************
     ************************************************************************

    This is output from DALTON release Dalton2016.2 (2016)
         ( Web site: http://daltonprogram.org )

   ----------------------------------------------------------------------------

    NOTE:
     
    Dalton is an experimental code for the evaluation of molecular
    properties using (MC)SCF, DFT, CI, and CC wave functions.
    The authors accept no responsibility for the performance of
    the code or for the correctness of the results.
     
    The code (in whole or part) is provided under a licence and
    is not to be reproduced for further distribution without
    the written permission of the authors or their representatives.
     
    See the home page "http://daltonprogram.org" for further information.
     
    If results obtained with this code are published,
    the appropriate citations would be both of:
     
       K. Aidas, C. Angeli, K. L. Bak, V. Bakken, R. Bast,
       L. Boman, O. Christiansen, R. Cimiraglia, S. Coriani,
       P. Dahle, E. K. Dalskov, U. Ekstroem,
       T. Enevoldsen, J. J. Eriksen, P. Ettenhuber, B. Fernandez,
       L. Ferrighi, H. Fliegl, L. Frediani, K. Hald, A. Halkier,
       C. Haettig, H. Heiberg, T. Helgaker, A. C. Hennum,
       H. Hettema, E. Hjertenaes, S. Hoest, I.-M. Hoeyvik,
       M. F. Iozzi, B. Jansik, H. J. Aa. Jensen, D. Jonsson,
       P. Joergensen, J. Kauczor, S. Kirpekar,
       T. Kjaergaard, W. Klopper, S. Knecht, R. Kobayashi, H. Koch,
       J. Kongsted, A. Krapp, K. Kristensen, A. Ligabue,
       O. B. Lutnaes, J. I. Melo, K. V. Mikkelsen, R. H. Myhre,
       C. Neiss, C. B. Nielsen, P. Norman, J. Olsen,
       J. M. H. Olsen, A. Osted, M. J. Packer, F. Pawlowski,
       T. B. Pedersen, P. F. Provasi, S. Reine, Z. Rinkevicius,
       T. A. Ruden, K. Ruud, V. Rybkin, P. Salek, C. C. M. Samson,
       A. Sanchez de Meras, T. Saue, S. P. A. Sauer,
       B. Schimmelpfennig, K. Sneskov, A. H. Steindal,
       K. O. Sylvester-Hvid, P. R. Taylor, A. M. Teale,
       E. I. Tellgren, D. P. Tew, A. J. Thorvaldsen, L. Thoegersen,
       O. Vahtras, M. A. Watson, D. J. D. Wilson, M. Ziolkowski
       and H. Agren,
       "The Dalton quantum chemistry program system",
       WIREs Comput. Mol. Sci. 2014, 4:269–284 (doi: 10.1002/wcms.1172)
     
    and
     
       Dalton, a Molecular Electronic Structure Program,
       Release Dalton2016.2 (2016), see http://daltonprogram.org
   ----------------------------------------------------------------------------

    Authors in alphabetical order (major contribution(s) in parenthesis):

  Kestutis Aidas,           Vilnius University,           Lithuania   (QM/MM)
  Celestino Angeli,         University of Ferrara,        Italy       (NEVPT2)
  Keld L. Bak,              UNI-C,                        Denmark     (AOSOPPA, non-adiabatic coupling, magnetic properties)
  Vebjoern Bakken,          University of Oslo,           Norway      (DALTON; geometry optimizer, symmetry detection)
  Radovan Bast,             UiT The Arctic U. of Norway,  Norway      (DALTON installation and execution frameworks)
  Pablo Baudin,             University of Valencia,       Spain       (Cholesky excitation energies)
  Linus Boman,              NTNU,                         Norway      (Cholesky decomposition and subsystems)
  Ove Christiansen,         Aarhus University,            Denmark     (CC module)
  Renzo Cimiraglia,         University of Ferrara,        Italy       (NEVPT2)
  Sonia Coriani,            University of Trieste,        Italy       (CC module, MCD in RESPONS)
  Janusz Cukras,            University of Trieste,        Italy       (MChD in RESPONS)
  Paal Dahle,               University of Oslo,           Norway      (Parallelization)
  Erik K. Dalskov,          UNI-C,                        Denmark     (SOPPA)
  Thomas Enevoldsen,        Univ. of Southern Denmark,    Denmark     (SOPPA)
  Janus J. Eriksen,         Aarhus University,            Denmark     (Polarizable embedding model, TDA)
  Rasmus Faber,             University of Copenhagen,     Denmark     (Vib.avg. NMR with SOPPA, parallel AO-SOPPA)
  Berta Fernandez,          U. of Santiago de Compostela, Spain       (doublet spin, ESR in RESPONS)
  Lara Ferrighi,            Aarhus University,            Denmark     (PCM Cubic response)
  Heike Fliegl,             University of Oslo,           Norway      (CCSD(R12))
  Luca Frediani,            UiT The Arctic U. of Norway,  Norway      (PCM)
  Bin Gao,                  UiT The Arctic U. of Norway,  Norway      (Gen1Int library)
  Christof Haettig,         Ruhr-University Bochum,       Germany     (CC module)
  Kasper Hald,              Aarhus University,            Denmark     (CC module)
  Asger Halkier,            Aarhus University,            Denmark     (CC module)
  Frederik Beyer Hansen,    University of Copenhagen,     Denmark     (Parallel AO-SOPPA)
  Erik D. Hedegaard,        Univ. of Southern Denmark,    Denmark     (Polarizable embedding model, QM/MM)
  Hanne Heiberg,            University of Oslo,           Norway      (geometry analysis, selected one-electron integrals)
  Trygve Helgaker,          University of Oslo,           Norway      (DALTON; ABACUS, ERI, DFT modules, London, and much more)
  Alf Christian Hennum,     University of Oslo,           Norway      (Parity violation)
  Hinne Hettema,            University of Auckland,       New Zealand (quadratic response in RESPONS; SIRIUS supersymmetry)
  Eirik Hjertenaes,         NTNU,                         Norway      (Cholesky decomposition)
  Maria Francesca Iozzi,    University of Oslo,           Norway      (RPA)
  Brano Jansik              Technical Univ. of Ostrava    Czech Rep.  (DFT cubic response)
  Hans Joergen Aa. Jensen,  Univ. of Southern Denmark,    Denmark     (DALTON; SIRIUS, RESPONS, ABACUS modules, London, and much more)
  Dan Jonsson,              UiT The Arctic U. of Norway,  Norway      (cubic response in RESPONS module)
  Poul Joergensen,          Aarhus University,            Denmark     (RESPONS, ABACUS, and CC modules)
  Maciej Kaminski,          University of Warsaw,         Poland      (CPPh in RESPONS)
  Joanna Kauczor,           Linkoeping University,        Sweden      (Complex polarization propagator (CPP) module)
  Sheela Kirpekar,          Univ. of Southern Denmark,    Denmark     (Mass-velocity & Darwin integrals)
  Wim Klopper,              KIT Karlsruhe,                Germany     (R12 code in CC, SIRIUS, and ABACUS modules)
  Stefan Knecht,            ETH Zurich,                   Switzerland (Parallel CI and MCSCF)
  Rika Kobayashi,           Australian National Univ.,    Australia   (DIIS in CC, London in MCSCF)
  Henrik Koch,              NTNU,                         Norway      (CC module, Cholesky decomposition)
  Jacob Kongsted,           Univ. of Southern Denmark,    Denmark     (Polarizable embedding model, QM/MM)
  Andrea Ligabue,           University of Modena,         Italy       (CTOCD, AOSOPPA)
  Nanna H. List             Univ. of Southern Denmark,    Denmark     (Polarizable embedding model)
  Ola B. Lutnaes,           University of Oslo,           Norway      (DFT Hessian)
  Juan I. Melo,             University of Buenos Aires,   Argentina   (LRESC, Relativistic Effects on NMR Shieldings)
  Kurt V. Mikkelsen,        University of Copenhagen,     Denmark     (MC-SCRF and QM/MM)
  Rolf H. Myhre,            NTNU,                         Norway      (Cholesky, subsystems and ECC2)
  Christian Neiss,          Univ. Erlangen-Nuernberg,     Germany     (CCSD(R12))
  Christian B. Nielsen,     University of Copenhagen,     Denmark     (QM/MM)
  Patrick Norman,           Linkoeping University,        Sweden      (Cubic response and complex frequency response in RESPONS)
  Jeppe Olsen,              Aarhus University,            Denmark     (SIRIUS CI/density modules)
  Jogvan Magnus H. Olsen,   Univ. of Southern Denmark,    Denmark     (Polarizable embedding model, QM/MM)
  Anders Osted,             Copenhagen University,        Denmark     (QM/MM)
  Martin J. Packer,         University of Sheffield,      UK          (SOPPA)
  Filip Pawlowski,          Kazimierz Wielki University,  Poland      (CC3)
  Morten N. Pedersen,       Univ. of Southern Denmark,    Denmark     (Polarizable embedding model)
  Thomas B. Pedersen,       University of Oslo,           Norway      (Cholesky decomposition)
  Patricio F. Provasi,      University of Northeastern,   Argentina   (Analysis of coupling constants in localized orbitals)
  Zilvinas Rinkevicius,     KTH Stockholm,                Sweden      (open-shell DFT, ESR)
  Elias Rudberg,            KTH Stockholm,                Sweden      (DFT grid and basis info)
  Torgeir A. Ruden,         University of Oslo,           Norway      (Numerical derivatives in ABACUS)
  Kenneth Ruud,             UiT The Arctic U. of Norway,  Norway      (DALTON; ABACUS magnetic properties and much more)
  Pawel Salek,              KTH Stockholm,                Sweden      (DALTON; DFT code)
  Claire C. M. Samson       University of Karlsruhe       Germany     (Boys localization, r12 integrals in ERI)
  Alfredo Sanchez de Meras, University of Valencia,       Spain       (CC module, Cholesky decomposition)
  Trond Saue,               Paul Sabatier University,     France      (direct Fock matrix construction)
  Stephan P. A. Sauer,      University of Copenhagen,     Denmark     (SOPPA(CCSD), SOPPA prop., AOSOPPA, vibrational g-factors)
  Bernd Schimmelpfennig,    Forschungszentrum Karlsruhe,  Germany     (AMFI module)
  Kristian Sneskov,         Aarhus University,            Denmark     (Polarizable embedding model, QM/MM)
  Arnfinn H. Steindal,      UiT The Arctic U. of Norway,  Norway      (parallel QM/MM, Polarizable embedding model)
  Casper Steinmann,         Univ. of Southern Denmark,    Denmark     (QFIT, Polarizable embedding model)
  K. O. Sylvester-Hvid,     University of Copenhagen,     Denmark     (MC-SCRF)
  Peter R. Taylor,          VLSCI/Univ. of Melbourne,     Australia   (Symmetry handling ABACUS, integral transformation)
  Andrew M. Teale,          University of Nottingham,     England     (DFT-AC, DFT-D)
  David P. Tew,             University of Bristol,        England     (CCSD(R12))
  Olav Vahtras,             KTH Stockholm,                Sweden      (triplet response, spin-orbit, ESR, TDDFT, open-shell DFT)
  David J. Wilson,          La Trobe University,          Australia   (DFT Hessian and DFT magnetizabilities)
  Hans Agren,               KTH Stockholm,                Sweden      (SIRIUS module, RESPONS, MC-SCRF solvation model)
 --------------------------------------------------------------------------------

     Date and time (Linux)  : Mon May 11 20:26:46 2020
     Host name              : s71p23.deic.sdu.dk                      

 * Work memory size             :   307200000 =  2.289 gigabytes.

 * Directories for basis set searches:
   1) /home/salvatore/ECD/R-BINOL/gas/rizzo/ciclopent
   2) /gpfs/gss1/work/sdujk/foeroyingur/Programs/dalton/build/2016/basis


Compilation information
-----------------------

 Who compiled             | foeroyingur
 Host                     | fe1.deic.sdu.dk
 System                   | Linux-3.10.0-327.36.3.el7.x86_64
 CMake generator          | Unix Makefiles
 Processor                | x86_64
 64-bit integers          | OFF
 MPI                      | ON
 Fortran compiler         | /opt/sys/apps/intel/2015.04/impi_latest/intel64/bi
                          | n/mpiifort
 Fortran compiler version | unknown
 C compiler               | /opt/sys/apps/intel/2015.04/impi_latest/intel64/bi
                          | n/mpiicc
 C compiler version       | unknown
 C++ compiler             | /opt/sys/apps/intel/2015.04/impi_latest/intel64/bi
                          | n/mpiicpc
 C++ compiler version     | unknown
 Static linking           | OFF
 Last Git revision        | 14fdd84ca3e054c0fd9b46a8fe51d95d5dc90c0c
 Git branch               | [32mDalton2016[m
 Configuration time       | 2017-07-11 17:55:06.433527

 * MPI run using 96 processes.


   Content of the .dal input file
 ----------------------------------

**DALTON INPUT
.DIRECT
.RUN RESPONSE
**WAVE fUNCTIONS
.DFT
B3LYP
**INTEGRAL
.ANGMOM
.ROTSTR
.DIPVEL
**RESPONSE
*QUADRATIC
.TPCD
.ROOTS
10
**END OF DALTON INPUT


   Content of the .mol file
 ----------------------------

BASIS
aug-cc-pVDZ
equat.xyz
Generated by Open Babel. Check overall charge below.
AtomTypes=3 Charge=0 NoSymmetry Angstrom
Charge=6.0 Atoms=6
C            -0.0305960000   -1.0714160000    0.0335630000
C             1.0797970000   -0.0846430000   -0.3722230000
C             0.5641850000    1.2718920000    0.1679490000
C            -0.9542720000    1.2319250000   -0.0652040000
C            -1.3221690000   -0.2529130000    0.0160500000
C             2.4796590000   -0.4589290000    0.1095870000
Charge=8.0 Atoms=1
O            -2.4479850000   -0.7005130000    0.0574710000
Charge=1.0 Atoms=10
H             0.1204260000   -1.4181030000    1.0708170000
H            -0.1200250000   -1.9647100000   -0.5967930000
H             1.0936910000   -0.0235580000   -1.4735260000
H             1.0570070000    2.1249610000   -0.3161170000
H             0.7791550000    1.3379740000    1.2462080000
H            -1.2163540000    1.5758750000   -1.0789010000
H            -1.5559060000    1.8192720000    0.6392690000
H             2.8041760000   -1.4228050000   -0.3072870000
H             2.5050400000   -0.5406800000    1.2068550000
H             3.2170350000    0.3003810000   -0.1886210000


       *******************************************************************
       *********** Output from DALTON general input processing ***********
       *******************************************************************

 --------------------------------------------------------------------------------
   Overall default print level:    0
   Print level for DALTON.STAT:    1

    Parallel calculation using MPI
    AO-direct calculation (in sections where implemented)
    HERMIT 1- and 2-electron integral sections will be executed
    "Old" integral transformation used (limited to max 255 basis functions)
    Wave function sections will be executed (SIRIUS module)
    Dynamic molecular response properties section will be executed (RESPONSE module)
 --------------------------------------------------------------------------------


   ****************************************************************************
   *************** Output of molecule and basis set information ***************
   ****************************************************************************


    The two title cards from your ".mol" input:
    ------------------------------------------------------------------------
 1: equat.xyz                                                               
 2: Generated by Open Babel. Check overall charge below.                    
    ------------------------------------------------------------------------

  Coordinates are entered in Angstrom and converted to atomic units.
          - Conversion factor : 1 bohr = 0.52917721 A

  Atomic type no.    1
  --------------------
  Nuclear charge:   6.00000
  Number of symmetry independent centers:    6
  Number of basis sets to read;    2
  Basis set file used for this atomic type with Z =   6 :
     "/gpfs/gss1/work/sdujk/foeroyingur/Programs/dalton/build/2016/basis/aug-cc-pVDZ"

  Atomic type no.    2
  --------------------
  Nuclear charge:   8.00000
  Number of symmetry independent centers:    1
  Number of basis sets to read;    2
  Basis set file used for this atomic type with Z =   8 :
     "/gpfs/gss1/work/sdujk/foeroyingur/Programs/dalton/build/2016/basis/aug-cc-pVDZ"

  Atomic type no.    3
  --------------------
  Nuclear charge:   1.00000
  Number of symmetry independent centers:   10
  Number of basis sets to read;    2
  Basis set file used for this atomic type with Z =   1 :
     "/gpfs/gss1/work/sdujk/foeroyingur/Programs/dalton/build/2016/basis/aug-cc-pVDZ"


                         SYMGRP: Point group information
                         -------------------------------

@    Point group: C1 


                                 Isotopic Masses
                                 ---------------

                           C          12.000000
                           C          12.000000
                           C          12.000000
                           C          12.000000
                           C          12.000000
                           C          12.000000
                           O          15.994915
                           H           1.007825
                           H           1.007825
                           H           1.007825
                           H           1.007825
                           H           1.007825
                           H           1.007825
                           H           1.007825
                           H           1.007825
                           H           1.007825
                           H           1.007825

                       Total mass:    98.073165 amu
                       Natural abundance:  93.214 %

 Center-of-mass coordinates (a.u.):   -0.165784   -0.034126   -0.003865


  Atoms and basis sets
  --------------------

  Number of atom types :    3
  Total number of atoms:   17

  Basis set used is "aug-cc-pVDZ" from the basis set library.

  label    atoms   charge   prim   cont     basis
  ----------------------------------------------------------------------
  C           6    6.0000    35    23      [10s5p2d|4s3p2d]                                   
  O           1    8.0000    35    23      [10s5p2d|4s3p2d]                                   
  H          10    1.0000    11     9      [5s2p|3s2p]                                        
  ----------------------------------------------------------------------
  total:     17   54.0000   355   251
  ----------------------------------------------------------------------
  Spherical harmonic basis used.

  Threshold for neglecting AO integrals:  1.00D-12

  Max    interatomic separation is    5.7580 Angstrom (   10.8811 Bohr)
  between atoms   17 and    7, "H     " and "O     ".

  Min HX interatomic separation is    1.0969 Angstrom (    2.0729 Bohr)

  Min YX interatomic separation is    1.2122 Angstrom (    2.2908 Bohr)


  Bond distances (Angstrom):
  --------------------------

                  atom 1     atom 2       distance
                  ------     ------       --------
  bond distance:  C          C            1.539921
  bond distance:  C          C            1.548492
  bond distance:  C          C            1.536772
  bond distance:  C          C            1.529188
  bond distance:  C          C            1.531892
  bond distance:  C          C            1.527038
  bond distance:  O          C            1.212239
  bond distance:  H          C            1.104036
  bond distance:  H          C            1.096960
  bond distance:  H          C            1.103083
  bond distance:  H          C            1.097689
  bond distance:  H          C            1.101463
  bond distance:  H          C            1.102075
  bond distance:  H          C            1.096915
  bond distance:  H          C            1.099160
  bond distance:  H          C            1.100602
  bond distance:  H          C            1.099638


  Bond angles (degrees):
  ----------------------

                  atom 1     atom 2     atom 3         angle
                  ------     ------     ------         -----
  bond angle:     C          C          C            105.249
  bond angle:     C          C          H            110.497
  bond angle:     C          C          H            115.416
  bond angle:     C          C          H            107.120
  bond angle:     C          C          H            111.127
  bond angle:     H          C          H            107.176
  bond angle:     C          C          C            103.258
  bond angle:     C          C          C            114.886
  bond angle:     C          C          H            107.918
  bond angle:     C          C          C            114.199
  bond angle:     C          C          H            107.695
  bond angle:     C          C          H            108.484
  bond angle:     C          C          C            104.673
  bond angle:     C          C          H            112.178
  bond angle:     C          C          H            109.212
  bond angle:     C          C          H            113.386
  bond angle:     C          C          H            110.055
  bond angle:     H          C          H            107.304
  bond angle:     C          C          C            104.741
  bond angle:     C          C          H            111.494
  bond angle:     C          C          H            115.504
  bond angle:     C          C          H            107.109
  bond angle:     C          C          H            110.684
  bond angle:     H          C          H            107.049
  bond angle:     C          C          C            108.456
  bond angle:     C          C          O            125.900
  bond angle:     C          C          O            125.644
  bond angle:     C          C          H            111.465
  bond angle:     C          C          H            110.727
  bond angle:     C          C          H            111.094
  bond angle:     H          C          H            107.829
  bond angle:     H          C          H            107.740
  bond angle:     H          C          H            107.830




 Principal moments of inertia (u*A**2) and principal axes
 --------------------------------------------------------

   IA      93.760263          0.999432    0.033389   -0.004599
   IB     261.196125         -0.033379    0.999440    0.002181
   IC     333.331422          0.004670   -0.002026    0.999987


 Rotational constants
 --------------------

               A                   B                   C

           5390.1193           1934.8641           1516.1457 MHz
            0.179795            0.064540            0.050573 cm-1


@  Nuclear repulsion energy :  304.606353197723 Hartree


                     .---------------------------------------.
                     | Starting in Integral Section (HERMIT) |
                     `---------------------------------------'



 ***************************************************************************************
 ****************** Output from **INTEGRALS input processing (HERMIT) ******************
 ***************************************************************************************



    *************************************************************************
    ****************** Output from HERMIT input processing ******************
    *************************************************************************


 Default print level:        1

 * Nuclear model: Point charge

 Calculation of one-electron Hamiltonian integrals.

 The following one-electron property integrals are calculated as requested:
          - overlap integrals
          - dipole velocity integrals
          - electronic angular momentum around the origin
          - Rotational strength integrals

 Center of mass  (bohr):     -0.165783861967     -0.034125557404     -0.003865428666
 Operator center (bohr):      0.000000000000      0.000000000000      0.000000000000
 Gauge origin    (bohr):      0.000000000000      0.000000000000      0.000000000000
 Dipole origin   (bohr):      0.000000000000      0.000000000000      0.000000000000


     ************************************************************************
     ************************** Output from HERINT **************************
     ************************************************************************

  Time used in ONEDRV     is       0.12 seconds
  Time used in ANGMOM     is       0.11 seconds
  Time used in GABGEN     is       0.19 seconds
  Total CPU  time used in HERMIT:   0.83 seconds
  Total wall time used in HERMIT:   0.85 seconds


                        .----------------------------------.
                        | End of Integral Section (HERMIT) |
                        `----------------------------------'



                   .--------------------------------------------.
                   | Starting in Wave Function Section (SIRIUS) |
                   `--------------------------------------------'


 *** Output from Huckel module :

     Using EWMO model:          T
     Using EHT  model:          F
     Number of Huckel orbitals each symmetry:   45

 EWMO - Energy Weighted Maximum Overlap - is a Huckel type method,
        which normally is better than Extended Huckel Theory.
 Reference: Linderberg and Ohrn, Propagators in Quantum Chemistry (Wiley, 1973)

 Huckel EWMO eigenvalues for symmetry :  1
          -20.684798     -11.362189     -11.353546     -11.350696     -11.348410
          -11.347110     -11.346380      -2.062584      -1.684858      -1.514607
           -1.329753      -1.116720      -1.107132      -0.864660      -0.823187
           -0.750099      -0.687396      -0.679843      -0.646243      -0.618061
           -0.587662      -0.525431      -0.472754      -0.460183      -0.445532
           -0.424568      -0.401224      -0.274978      -0.167546      -0.149409
           -0.147209      -0.138629      -0.137015      -0.127445      -0.125430
           -0.123139      -0.121956      -0.121010      -0.118202      -0.115874
           -0.114940      -0.110670      -0.107590      -0.107319      -0.103116

 **********************************************************************
 *SIRIUS* a direct, restricted step, second order MCSCF program       *
 **********************************************************************

 
     Date and time (Linux)  : Mon May 11 20:26:48 2020
     Host name              : s71p23.deic.sdu.dk                      

 Title lines from ".mol" input file:
     equat.xyz                                                               
     Generated by Open Babel. Check overall charge below.                    

 Print level on unit LUPRI =   2 is   0
 Print level on unit LUW4  =   2 is   5

@    Restricted, closed shell Kohn-Sham DFT calculation.

@    Time-dependent Kohn-Sham DFT calculation (TD-DFT).
 Fock matrices are calculated directly and in parallel without use of integrals on disk.

 Initial molecular orbitals are obtained according to
 ".MOSTART EWMO  " input option

     Wave function specification
     ============================
@    Wave function type        --- KS-DFT ---
@    Number of closed shell electrons          54
@    Number of electrons in active shells       0
@    Total charge of the molecule               0

@    Spin multiplicity and 2 M_S                1         0
@    Total number of symmetries                 1 (point group: C1 )
@    Reference state symmetry                   1 (irrep name : A  )
 
     This is a DFT calculation of type: B3LYP
 Weighted mixed functional:
               HF exchange:    0.20000
                       VWN:    0.19000
                       LYP:    0.81000
                     Becke:    0.72000
                    Slater:    0.80000

     Orbital specifications
     ======================
@    Abelian symmetry species          All |    1
@                                          |  A  
                                       --- |  ---
@    Occupied SCF orbitals              27 |   27
@    Secondary orbitals                224 |  224
@    Total number of orbitals          251 |  251
@    Number of basis functions         251 |  251

     Optimization information
     ========================
@    Number of configurations                 1
@    Number of orbital rotations           6048
     ------------------------------------------
@    Total number of variables             6049

     Maximum number of Fock   iterations      0
     Maximum number of DIIS   iterations     60
     Maximum number of QC-SCF iterations     60
     Threshold for SCF convergence     1.00D-05
 
     This is a DFT calculation of type: B3LYP
 Weighted mixed functional:
               HF exchange:    0.20000
                       VWN:    0.19000
                       LYP:    0.81000
                     Becke:    0.72000
                    Slater:    0.80000


 ***********************************************
 ***** DIIS acceleration of SCF iterations *****
 ***********************************************

 C1-DIIS algorithm; max error vectors =    8

 Iter      Total energy        Error norm    Delta(E)  DIIS dim.
 -----------------------------------------------------------------------------
   1  Screening settings (-IFTHRS, JTDIIS, DIFDEN, times)   -8    1    F  2.02D+00  2.02D+00
      K-S energy, electrons, error :    -35.338239465246  54.0000483901    4.84D-05
@  1    -308.420608297        4.55265D+00   -3.08D+02    1
      Virial theorem: -V/T =      2.015220
@      MULPOP C       0.20; C      -0.28; C       0.33; C       0.12; C       1.12; C       0.40; O      -1.23; H      -0.02; H      -0.06; H      -0.18; 
@             H      -0.11; H      -0.12; H      -0.01; H      -0.05; H      -0.04; H      -0.03; H      -0.04; 
   1  Level shift: doubly occupied orbital energies shifted by -2.00D-01
 -----------------------------------------------------------------------------
   2  Screening settings (-IFTHRS, JTDIIS, DIFDEN, times)   -9    2    F  6.96D-01  6.96D-01
      K-S energy, electrons, error :    -36.397826187933  54.0000361732    3.62D-05
@  2    -307.974797149        5.83740D+00    4.46D-01    2
      Virial theorem: -V/T =      1.994689
@      MULPOP C       0.73; C      -0.32; C       1.05; C       0.46; C      -1.46; C       0.82; O       1.34; H      -0.18; H      -0.33; H      -0.51; 
@             H      -0.38; H      -0.35; H      -0.22; H      -0.24; H      -0.14; H      -0.14; H      -0.14; 
   2  Level shift: doubly occupied orbital energies shifted by -2.00D-01
 -----------------------------------------------------------------------------
   3  Screening settings (-IFTHRS, JTDIIS, DIFDEN, times)   -9    3    F  7.05D-01  7.05D-01
      K-S energy, electrons, error :    -36.433868071992  54.0000337142    3.37D-05
@  3    -309.652704192        1.04707D+00   -1.68D+00    3
      Virial theorem: -V/T =      1.998556
@      MULPOP C       0.91; C      -0.26; C       1.15; C       0.61; C       0.19; C       0.88; O      -0.51; H      -0.23; H      -0.37; H      -0.55; 
@             H      -0.40; H      -0.39; H      -0.25; H      -0.29; H      -0.17; H      -0.16; H      -0.16; 
   3  Level shift: doubly occupied orbital energies shifted by -5.00D-02
 -----------------------------------------------------------------------------
   4  Screening settings (-IFTHRS, JTDIIS, DIFDEN, times)   -9    4    F  6.90D-01  6.89D-01
      K-S energy, electrons, error :    -35.996178409586  54.0000347967    3.48D-05
@  4    -309.710273395        5.46498D-01   -5.76D-02    4
      Virial theorem: -V/T =      2.009545
@      MULPOP C       1.07; C      -0.02; C       1.36; C       0.80; C       0.08; C       1.22; O      -0.53; H      -0.32; H      -0.46; H      -0.67; 
@             H      -0.50; H      -0.50; H      -0.34; H      -0.38; H      -0.29; H      -0.28; H      -0.27; 
   4  Level shift: doubly occupied orbital energies shifted by -5.00D-02
 -----------------------------------------------------------------------------
   5  Screening settings (-IFTHRS, JTDIIS, DIFDEN, times)  -10    5    F  6.86D-01  6.85D-01
      K-S energy, electrons, error :    -36.124284951618  54.0000351241    3.51D-05
@  5    -309.726851221        9.43764D-02   -1.66D-02    5
      Virial theorem: -V/T =      2.006282
@      MULPOP C       1.08; C      -0.12; C       1.31; C       0.81; C       0.15; C       1.16; O      -0.61; H      -0.30; H      -0.44; H      -0.63; 
@             H      -0.48; H      -0.48; H      -0.32; H      -0.36; H      -0.26; H      -0.25; H      -0.25; 
   5  Level shift: doubly occupied orbital energies shifted by -1.25D-02
 -----------------------------------------------------------------------------
   6  Screening settings (-IFTHRS, JTDIIS, DIFDEN, times)  -10    6    F  6.84D-01  6.83D-01
      K-S energy, electrons, error :    -36.130572663891  54.0000348367    3.48D-05
@  6    -309.727271184        3.42326D-02   -4.20D-04    6
      Virial theorem: -V/T =      2.006145
@      MULPOP C       1.06; C      -0.09; C       1.31; C       0.78; C       0.14; C       1.14; O      -0.59; H      -0.29; H      -0.44; H      -0.63; 
@             H      -0.48; H      -0.48; H      -0.32; H      -0.35; H      -0.26; H      -0.25; H      -0.24; 
 -----------------------------------------------------------------------------
   7  Screening settings (-IFTHRS, JTDIIS, DIFDEN, times)  -11    7    F  6.90D-01  6.89D-01
      K-S energy, electrons, error :    -36.128446251716  54.0000348491    3.48D-05
@  7    -309.727334651        8.35223D-03   -6.35D-05    7
      Virial theorem: -V/T =      2.006208
@      MULPOP C       1.06; C      -0.10; C       1.30; C       0.78; C       0.14; C       1.14; O      -0.59; H      -0.29; H      -0.43; H      -0.63; 
@             H      -0.48; H      -0.47; H      -0.32; H      -0.35; H      -0.26; H      -0.25; H      -0.24; 
 -----------------------------------------------------------------------------
   8  Screening settings (-IFTHRS, JTDIIS, DIFDEN, times)  -11    8    F  6.88D-01  6.87D-01
      K-S energy, electrons, error :    -36.128645831575  54.0000348773    3.49D-05
@  8    -309.727338640        1.72249D-03   -3.99D-06    8
      Virial theorem: -V/T =      2.006204
@      MULPOP C       1.06; C      -0.10; C       1.31; C       0.78; C       0.14; C       1.14; O      -0.58; H      -0.29; H      -0.43; H      -0.63; 
@             H      -0.48; H      -0.47; H      -0.32; H      -0.35; H      -0.26; H      -0.25; H      -0.24; 
 -----------------------------------------------------------------------------
   9  Screening settings (-IFTHRS, JTDIIS, DIFDEN, times)  -12    9    F  6.87D-01  6.86D-01
      K-S energy, electrons, error :    -36.128638678213  54.0000348681    3.49D-05
@  9    -309.727338810        5.31742D-04   -1.70D-07    8
      Virial theorem: -V/T =      2.006204
@      MULPOP C       1.06; C      -0.10; C       1.31; C       0.78; C       0.14; C       1.14; O      -0.58; H      -0.29; H      -0.43; H      -0.63; 
@             H      -0.48; H      -0.47; H      -0.32; H      -0.35; H      -0.26; H      -0.25; H      -0.24; 
 -----------------------------------------------------------------------------
  10  Screening settings (-IFTHRS, JTDIIS, DIFDEN, times)  -12   10    F  6.86D-01  6.85D-01
      K-S energy, electrons, error :    -36.128635684327  54.0000348686    3.49D-05
@ 10    -309.727338828        1.03684D-04   -1.79D-08    8
      Virial theorem: -V/T =      2.006204
@      MULPOP C       1.06; C      -0.10; C       1.31; C       0.78; C       0.14; C       1.14; O      -0.58; H      -0.29; H      -0.43; H      -0.63; 
@             H      -0.48; H      -0.47; H      -0.32; H      -0.35; H      -0.26; H      -0.25; H      -0.24; 
 -----------------------------------------------------------------------------
  11  Screening settings (-IFTHRS, JTDIIS, DIFDEN, times)  -12   11    F  6.90D-01  6.88D-01
      K-S energy, electrons, error :    -36.128635255997  54.0000348688    3.49D-05
@ 11    -309.727338828        3.40447D-05   -6.48D-10    8
      Virial theorem: -V/T =      2.006204
@      MULPOP C       1.06; C      -0.10; C       1.31; C       0.78; C       0.14; C       1.14; O      -0.58; H      -0.29; H      -0.43; H      -0.63; 
@             H      -0.48; H      -0.47; H      -0.32; H      -0.35; H      -0.26; H      -0.25; H      -0.24; 
 -----------------------------------------------------------------------------
  12  Screening settings (-IFTHRS, JTDIIS, DIFDEN, times)  -12   12    F  6.87D-01  6.86D-01
      K-S energy, electrons, error :    -36.128635694396  54.0000348688    3.49D-05
@ 12    -309.727338828        9.02265D-06   -7.47D-11    8

@ *** DIIS converged in  12 iterations !
@     Converged SCF energy, gradient:   -309.727338828258    9.02D-06
    - total time used in SIRFCK :              0.00 seconds


 *** SCF orbital energy analysis ***

 Only the 20 lowest virtual orbital energies printed in each symmetry.

 Number of electrons :   54
 Orbital occupations :   27

 Sym       Kohn-Sham orbital energies

1 A     -19.13779411   -10.27318379   -10.19969138   -10.19297899   -10.19164352
        -10.19113008   -10.18392228    -1.04508119    -0.84995460    -0.75168120
         -0.71673737    -0.65480191    -0.57694670    -0.53527228    -0.49652871
         -0.46536919    -0.44186478    -0.43151982    -0.41684798    -0.41056954
         -0.38634293    -0.37924311    -0.35473198    -0.34165790    -0.33706764
         -0.33123694    -0.24538498    -0.02937844    -0.01309398     0.00327932
          0.00540161     0.01006712     0.02957310     0.03194772     0.03407778
          0.03916640     0.04280016     0.06120072     0.06954707     0.07213997
          0.08399386     0.08910629     0.09362916     0.09572694     0.09892367
          0.10157614     0.10486972

    E(LUMO) :    -0.02937844 au (symmetry 1)
  - E(HOMO) :    -0.24538498 au (symmetry 1)
  ------------------------------------------
    gap     :     0.21600654 au

 --- Writing SIRIFC interface file

 CPU and wall time for SCF :      14.502      14.592


                       .-----------------------------------.
                       | --- Final results from SIRIUS --- |
                       `-----------------------------------'


@    Spin multiplicity:           1
@    Spatial symmetry:            1 ( irrep  A   in C1  )
@    Total charge of molecule:    0

@    Final DFT energy:           -309.727338828258                 
@    Nuclear repulsion:           304.606353197723
@    Electronic energy:          -614.333692025981

@    Final gradient norm:           0.000009022646

 
     Date and time (Linux)  : Mon May 11 20:27:03 2020
     Host name              : s71p23.deic.sdu.dk                      

File label for MO orbitals:  11May20   FOCKDIIS

 (Only coefficients > 0.0100 are printed.)

 Molecular orbitals for symmetry species 1  (A  )
 ------------------------------------------------

    Orbital        18       19       20       21       22       23       24
   2 C   :1s    -0.0026   0.0486   0.0658   0.0287  -0.0062   0.1265   0.0083
   3 C   :1s     0.1158  -0.0206  -0.1074  -0.0718   0.1360   0.2599  -0.1306
   4 C   :1s    -0.1649  -0.1614  -0.0461  -0.2894   0.3272   0.0915   0.1249
   5 C   :2px    0.1744  -0.1054   0.1200   0.1434  -0.1544   0.1822   0.0329
   6 C   :2py   -0.0394  -0.1191  -0.1974  -0.1412   0.1305   0.3735   0.0263
   7 C   :2pz   -0.3613  -0.2655   0.1355  -0.1263  -0.1070   0.0633   0.1562
   8 C   :2px    0.0269   0.0495   0.0761   0.1166  -0.1541  -0.0428   0.0659
   9 C   :2py    0.1070   0.1084   0.1352   0.1112  -0.0191  -0.0065  -0.0969
  10 C   :2pz    0.1560   0.1321  -0.0785   0.0203   0.0287  -0.0757  -0.0832
  11 C   :2px    0.0456  -0.0944  -0.0322   0.0355   0.0583  -0.0110   0.0243
  12 C   :2py   -0.0073   0.0020  -0.0297  -0.0561   0.0754   0.0227  -0.0136
  13 C   :2pz    0.0475   0.0618  -0.0093   0.0428   0.0004  -0.0708  -0.0538
  14 C   :3d2-   0.0075  -0.0009  -0.0009   0.0107  -0.0096   0.0078  -0.0019
  15 C   :3d1-   0.0028   0.0072  -0.0005   0.0032   0.0001  -0.0133  -0.0067
  16 C   :3d0   -0.0059  -0.0043   0.0102   0.0031  -0.0053   0.0017   0.0028
  18 C   :3d2+  -0.0035  -0.0065  -0.0102  -0.0122   0.0022   0.0008   0.0039
  19 C   :3d2-   0.0031  -0.0052   0.0355   0.0301  -0.0352  -0.0067   0.0283
  20 C   :3d1-  -0.0650  -0.0340  -0.0207  -0.0401  -0.0048   0.0631   0.0101
  21 C   :3d0    0.0201  -0.0195  -0.0558  -0.0153   0.0289   0.0019  -0.0019
  22 C   :3d1+   0.0134  -0.0073  -0.0030  -0.0236   0.0093  -0.0212  -0.0120
  23 C   :3d2+  -0.0066   0.0538  -0.0549  -0.0188   0.0159  -0.0167  -0.0084
  25 C   :1s    -0.0485  -0.0042  -0.1139  -0.0105   0.0004   0.0114   0.0054
  26 C   :1s    -0.0320   0.0034  -0.1629  -0.0820   0.0495   0.0242  -0.0062
  27 C   :1s     0.0942  -0.0425   0.1802  -0.2113  -0.3511   0.2162   0.0950
  28 C   :2px   -0.1325   0.0606   0.0148  -0.2940   0.0579  -0.4492   0.1112
  29 C   :2py   -0.2241   0.1000   0.0366   0.1200  -0.0516  -0.0750  -0.0496
  30 C   :2pz    0.0365   0.0315  -0.0895  -0.1184  -0.0892  -0.0243   0.0433
  31 C   :2px    0.1282   0.0304   0.2024   0.2333  -0.0514   0.2895  -0.1289
  32 C   :2py    0.0476   0.0932  -0.0526  -0.0106  -0.0244   0.0221   0.0452
  33 C   :2pz   -0.0644   0.0165  -0.0613   0.0794   0.1405   0.0348  -0.0454
  34 C   :2px   -0.0388  -0.0289  -0.0110  -0.1177  -0.0824  -0.0092   0.0559
  35 C   :2py   -0.0262  -0.1391   0.0359  -0.0157   0.1264   0.0597   0.0857
  36 C   :2pz   -0.0103  -0.0474   0.0240  -0.0641  -0.1063   0.0705   0.0157
  37 C   :3d2-  -0.0000   0.0112   0.0023   0.0020   0.0042   0.0174  -0.0028
  38 C   :3d1-   0.0039   0.0112  -0.0026  -0.0022  -0.0053  -0.0015  -0.0100
  40 C   :3d1+   0.0041   0.0058  -0.0043   0.0046   0.0120  -0.0129   0.0007
  42 C   :3d2-  -0.0348   0.0749   0.0231  -0.0066   0.0075  -0.0285  -0.0199
  43 C   :3d1-   0.0154   0.0638  -0.0201  -0.0140  -0.0203  -0.0010  -0.0196
  44 C   :3d0    0.0372   0.0311  -0.0093   0.0056   0.0206  -0.0040   0.0095
  45 C   :3d1+   0.0415   0.0269   0.0366   0.0698   0.0215   0.0655  -0.0482
  46 C   :3d2+  -0.0619   0.0124  -0.0243   0.0274  -0.0568   0.0517   0.0012
  48 C   :1s     0.0912  -0.0487   0.0503   0.0361  -0.0640  -0.0422   0.0042
  49 C   :1s    -0.0613   0.0071   0.1592   0.1613  -0.0999  -0.1067   0.0634
  50 C   :1s    -0.2011   0.1775  -0.3578   0.1804  -0.2831  -0.2399  -0.1118
  51 C   :2px   -0.0329   0.1414   0.1387  -0.1677   0.2847   0.2662  -0.1700
  52 C   :2py    0.0672  -0.1104   0.1222  -0.1082   0.2816   0.0723   0.1387
  53 C   :2pz    0.2166   0.2184  -0.0976  -0.2295  -0.1409   0.0456  -0.2610
  54 C   :2px   -0.0811  -0.0955  -0.1969   0.0241  -0.1424  -0.0692   0.0396
  55 C   :2py   -0.0740   0.0911  -0.2200  -0.0252  -0.1122  -0.0768  -0.0350
  56 C   :2pz   -0.1397  -0.1551   0.0123   0.0984   0.0904  -0.0074   0.1957
  57 C   :2px    0.0227   0.0629   0.0240  -0.0001   0.0420   0.0020  -0.0354
  58 C   :2py    0.0591  -0.0320   0.0300  -0.0518   0.0115   0.0527  -0.0038
  59 C   :2pz   -0.0073  -0.0281   0.0331   0.0024   0.0967   0.0278   0.0834
  60 C   :3d2-   0.0070  -0.0036   0.0118   0.0033   0.0070   0.0030   0.0039
  62 C   :3d0    0.0059   0.0059   0.0009  -0.0065  -0.0019   0.0047  -0.0154
  63 C   :3d1+   0.0048  -0.0009  -0.0027  -0.0044  -0.0103  -0.0031  -0.0112
  64 C   :3d2+  -0.0012   0.0000  -0.0021  -0.0013  -0.0069  -0.0183   0.0053
  65 C   :3d2-   0.0312   0.0546   0.0120   0.0124  -0.0237   0.0091  -0.0374
  66 C   :3d1-   0.0038   0.0050   0.0414   0.0055   0.0535   0.0370   0.0198
  67 C   :3d0   -0.0650  -0.0016  -0.0359   0.0408   0.0016  -0.0207   0.0396
  68 C   :3d1+   0.0084   0.0102   0.0320  -0.0021   0.0353  -0.0021  -0.0105
  69 C   :3d2+  -0.0225  -0.0114   0.0008  -0.0163   0.0343   0.0113   0.0302
  71 C   :1s    -0.0598   0.0075  -0.0644   0.0124  -0.0580  -0.1147   0.0361
  72 C   :1s    -0.0256  -0.0049   0.0951   0.0816  -0.1057  -0.2135   0.1353
  73 C   :1s     0.1864  -0.0614   0.2968  -0.0943   0.1918  -0.0525   0.1008
  74 C   :2px    0.0356  -0.1941  -0.0519   0.1446  -0.2596  -0.3163   0.1495
  75 C   :2py   -0.1329  -0.0466  -0.3603   0.0172  -0.0343   0.2129  -0.0112
  76 C   :2pz    0.0080   0.0935  -0.0413   0.1840   0.1210   0.0114   0.3482
  77 C   :2px   -0.0849   0.0233  -0.2167  -0.0282   0.0216   0.1460  -0.0669
  78 C   :2py    0.0980  -0.0726   0.0183  -0.0371   0.0089   0.0697  -0.0595
  79 C   :2pz    0.0130  -0.0132   0.0097  -0.1052  -0.0734  -0.0353  -0.1796
  80 C   :2px    0.0181   0.0195   0.0575  -0.0076   0.0381  -0.0127   0.0485
  81 C   :2py   -0.0337   0.0150  -0.0538   0.0214  -0.0141   0.0241  -0.0369
  82 C   :2pz    0.0168   0.0020   0.0090  -0.0117  -0.0355  -0.0355  -0.0851
  83 C   :3d2-   0.0070  -0.0040   0.0131  -0.0012   0.0038  -0.0024   0.0022
  84 C   :3d1-   0.0059   0.0063  -0.0046  -0.0002   0.0012   0.0063   0.0137
  85 C   :3d0   -0.0040   0.0010  -0.0081  -0.0067  -0.0031   0.0050  -0.0141
  86 C   :3d1+   0.0072   0.0021  -0.0009  -0.0094  -0.0108  -0.0043  -0.0108
  87 C   :3d2+  -0.0006  -0.0078  -0.0102   0.0094  -0.0118  -0.0026   0.0026
  88 C   :3d2-   0.0124   0.0123   0.0617   0.0252   0.0110  -0.0267   0.0465
  89 C   :3d1-   0.0225   0.0089   0.0148  -0.0037  -0.0417  -0.0376  -0.0481
  90 C   :3d0    0.0437  -0.0074   0.0487   0.0085  -0.0041  -0.0247   0.0309
  91 C   :3d1+   0.0053   0.0441  -0.0396   0.0123   0.0176   0.0224  -0.0001
  92 C   :3d2+  -0.0005  -0.0244  -0.0406  -0.0217   0.0041   0.0347  -0.0091
  94 C   :1s     0.0562  -0.0526   0.0088  -0.0735   0.0952  -0.0405   0.0241
  95 C   :1s     0.0745  -0.1543  -0.0801   0.0661  -0.1408   0.0681   0.0519
  96 C   :1s     0.1014  -0.0301  -0.1874   0.2464  -0.2191  -0.0120  -0.0671
  97 C   :2px   -0.1700   0.1505   0.0011  -0.2709   0.2986  -0.0553  -0.0004
  98 C   :2py    0.1443   0.1045   0.4875   0.0453   0.0732  -0.0926   0.0167
  99 C   :2pz   -0.2491  -0.1731   0.0442   0.1653   0.0977  -0.0828  -0.2740
 100 C   :2px    0.0586  -0.0874   0.0674   0.1180  -0.1337  -0.0605   0.1037
 101 C   :2py   -0.0401  -0.0640  -0.3359  -0.1260   0.0875   0.1863  -0.1261
 102 C   :2pz    0.0715   0.0404   0.0148  -0.0103  -0.0287  -0.0383   0.0324
 103 C   :2px    0.0186   0.0010  -0.0200   0.0282  -0.0397  -0.0036  -0.0268
 104 C   :2py   -0.0391   0.0629   0.0118  -0.0260  -0.0289   0.0142  -0.0020
 105 C   :2pz   -0.0168  -0.0205   0.0005  -0.0043   0.0270   0.0453   0.0409
 106 C   :3d2-   0.0042  -0.0144  -0.0157   0.0068  -0.0176  -0.0107   0.0056
 107 C   :3d1-   0.0098   0.0100  -0.0042   0.0038   0.0018   0.0015   0.0178
 109 C   :3d1+   0.0018   0.0028   0.0011  -0.0129  -0.0088   0.0065   0.0314
 110 C   :3d2+   0.0093  -0.0118   0.0008   0.0122  -0.0110   0.0180   0.0045
 111 C   :3d2-   0.0047   0.0020  -0.0166  -0.0379   0.0720   0.0093  -0.0119
 112 C   :3d1-   0.0034   0.0294  -0.0006   0.0234  -0.0012  -0.0152   0.0015
 113 C   :3d0   -0.0143   0.0030   0.0074  -0.0102   0.0011   0.0048  -0.0057
 114 C   :3d1+  -0.0070  -0.0190   0.0157   0.0122  -0.0088  -0.0286  -0.0021
 115 C   :3d2+  -0.0056   0.0278   0.0541  -0.0030   0.0151  -0.0721   0.0525
 117 C   :1s     0.0063  -0.0018  -0.0144  -0.0138   0.0095  -0.0695   0.0311
 118 C   :1s    -0.0166   0.0342  -0.0444  -0.1789   0.0348  -0.2054   0.0801
 119 C   :1s     0.0343   0.0394   0.0240   0.2077   0.2288  -0.0331  -0.0868
 120 C   :2px   -0.0393   0.0547   0.1546   0.2411  -0.1859   0.4133  -0.1146
 121 C   :2py   -0.3135   0.4225  -0.0017   0.1086  -0.1443  -0.0236   0.0877
 122 C   :2pz    0.0947   0.0571  -0.1898   0.3703   0.3075  -0.0172  -0.0091
 123 C   :2px    0.0595  -0.0498  -0.0085   0.0629   0.1186   0.0182  -0.0461
 124 C   :2py    0.1589  -0.2864  -0.0139  -0.1228   0.0892  -0.0720  -0.0009
 125 C   :2pz   -0.0529  -0.0470   0.1181  -0.1528  -0.2043   0.0818  -0.0069
 126 C   :2px   -0.0015  -0.0192  -0.0137  -0.0340  -0.0372   0.0139   0.0124
 127 C   :2py    0.0303  -0.0309  -0.0006  -0.0020   0.0117  -0.0186  -0.0162
 128 C   :2pz   -0.0011   0.0059   0.0019  -0.0272  -0.0312   0.0059   0.0000
 129 C   :3d2-  -0.0014   0.0093   0.0026   0.0075  -0.0054   0.0110   0.0005
 131 C   :3d0    0.0035  -0.0002  -0.0047   0.0125   0.0133  -0.0027  -0.0014
 134 C   :3d2-   0.0216  -0.0196  -0.0030  -0.0045   0.0270   0.0166  -0.0137
 135 C   :3d1-  -0.0399   0.0646  -0.0003   0.0263  -0.0214   0.0121   0.0004
 136 C   :3d0   -0.0048   0.0107   0.0415  -0.0206  -0.0251   0.0223  -0.0105
 137 C   :3d1+   0.0029   0.0225  -0.0112   0.0098   0.0215  -0.0092   0.0014
 138 C   :3d2+  -0.0061  -0.0125   0.0084  -0.0346  -0.0245  -0.0009   0.0024
 140 O   :1s    -0.0623   0.0861   0.0647  -0.0517   0.0547  -0.0076   0.0018
 141 O   :1s    -0.0417   0.0409   0.0359  -0.0425   0.0394  -0.0023  -0.0069
 142 O   :1s    -0.0649   0.0559   0.0718  -0.0954   0.0955  -0.0044   0.0037
 143 O   :2px    0.0786  -0.2552  -0.3318   0.1689  -0.2599   0.0357  -0.0135
 144 O   :2py    0.1935  -0.0615   0.2986   0.2194  -0.1090   0.0871   0.0071
 145 O   :2pz   -0.2334  -0.1590   0.0613   0.1949   0.1586  -0.1486  -0.5551
 146 O   :2px   -0.0257   0.0513   0.0458  -0.0484   0.0636  -0.0151  -0.0012
 147 O   :2py   -0.0180   0.0142   0.0043  -0.0199   0.0240  -0.0153   0.0024
 148 O   :2pz    0.0082   0.0036  -0.0010  -0.0013  -0.0088  -0.0019   0.0151
 150 O   :2py    0.0059  -0.0072   0.0174   0.0096   0.0057   0.0089  -0.0006
 151 O   :2pz   -0.0100  -0.0091   0.0065   0.0177   0.0036  -0.0274  -0.0566
 155 O   :3d1+  -0.0079  -0.0052   0.0024   0.0054   0.0045  -0.0039  -0.0133
 156 O   :3d2+  -0.0012  -0.0057  -0.0126   0.0011  -0.0047   0.0009  -0.0003
 157 O   :3d2-   0.0008   0.0060   0.0147  -0.0004   0.0051  -0.0070   0.0018
 159 O   :3d0    0.0027  -0.0049  -0.0056   0.0070  -0.0104   0.0040   0.0006
 160 O   :3d1+  -0.0069  -0.0041   0.0010   0.0065   0.0022  -0.0040  -0.0105
 161 O   :3d2+  -0.0049   0.0057  -0.0056  -0.0096   0.0108   0.0016  -0.0035
 162 H   :1s    -0.2940  -0.2036   0.2580  -0.0274  -0.1710   0.0474   0.1649
 163 H   :1s    -0.0849   0.0679   0.0465   0.0434   0.0115   0.1022   0.0036
 164 H   :1s    -0.0261  -0.0225   0.0098  -0.0414  -0.0041   0.0394   0.0268
 169 H   :2py   -0.0082   0.0074   0.0244   0.0158   0.0010  -0.0066   0.0091
 170 H   :2pz    0.0534  -0.0037  -0.0185  -0.0043   0.0012  -0.0375  -0.0083
 171 H   :1s     0.2321   0.2995   0.1203   0.2072  -0.0384  -0.3197  -0.1325
 172 H   :1s     0.1126   0.1030  -0.0020   0.0609  -0.0072  -0.0736  -0.0651
 173 H   :1s     0.0153   0.0296  -0.0069   0.0082   0.0405  -0.0242  -0.0250
 177 H   :2px    0.0022   0.0051   0.0035   0.0072   0.0045  -0.0137  -0.0050
 178 H   :2py    0.0326   0.0331   0.0250   0.0254  -0.0197  -0.0326  -0.0120
 179 H   :2pz    0.0242   0.0205  -0.0179   0.0027   0.0086  -0.0086  -0.0136
 180 H   :1s    -0.0779  -0.0281   0.0253   0.1180   0.0945   0.0243  -0.0569
 181 H   :1s    -0.0927  -0.0100  -0.0580   0.0346   0.0889   0.0260  -0.0743
 182 H   :1s    -0.0055  -0.0204   0.0100  -0.0273  -0.0553   0.0355   0.0016
 186 H   :2px    0.0192   0.0069  -0.0110   0.0206   0.0178   0.0047  -0.0069
 187 H   :2py    0.0196   0.0225  -0.0057  -0.0145  -0.0084   0.0010  -0.0134
 188 H   :2pz   -0.0319  -0.0011  -0.0188   0.0220   0.0400   0.0138  -0.0235
 189 H   :1s    -0.0093  -0.1490   0.2491  -0.0340   0.4043   0.1586   0.1795
 190 H   :1s     0.0023  -0.0834   0.1451   0.0420   0.1483   0.0956   0.1074
 191 H   :1s    -0.0164  -0.0091   0.0148   0.0176   0.0356  -0.0108   0.0391
 195 H   :2px    0.0013   0.0155  -0.0271   0.0014  -0.0237  -0.0301  -0.0175
 196 H   :2py   -0.0179   0.0230  -0.0491  -0.0047  -0.0461  -0.0288  -0.0183
 197 H   :2pz   -0.0206  -0.0188   0.0093   0.0121   0.0155   0.0013   0.0239
 198 H   :1s     0.2564   0.2102  -0.0301  -0.2477  -0.1016   0.0928  -0.3350
 199 H   :1s     0.1414   0.0160   0.0709  -0.0944  -0.0205   0.0190  -0.1689
 200 H   :1s     0.0010   0.0220  -0.0196  -0.0025  -0.0590   0.0004  -0.0649
 204 H   :2px   -0.0120  -0.0080  -0.0068   0.0172  -0.0012  -0.0035   0.0233
 205 H   :2py   -0.0095  -0.0112  -0.0088   0.0060  -0.0178  -0.0100   0.0052
 206 H   :2pz   -0.0553  -0.0188  -0.0086   0.0451   0.0187  -0.0022   0.0654
 207 H   :1s    -0.0958  -0.0471  -0.1136  -0.2105  -0.1027   0.0797  -0.4100
 208 H   :1s     0.0023   0.0648  -0.0120  -0.0312  -0.0558  -0.0709  -0.1018
 209 H   :1s     0.0045  -0.0007   0.0092  -0.0166  -0.0052  -0.0122  -0.0558
 213 H   :2px    0.0043   0.0194  -0.0179  -0.0128  -0.0005   0.0032  -0.0292
 214 H   :2py    0.0080  -0.0058   0.0125   0.0072  -0.0064  -0.0078   0.0078
 215 H   :2pz    0.0074   0.0166   0.0043  -0.0202  -0.0256  -0.0274  -0.0361
 216 H   :1s    -0.1245   0.1520  -0.2407   0.0665   0.1897   0.2605   0.1861
 217 H   :1s    -0.0802   0.0204  -0.0276   0.0708   0.0552   0.0328   0.0966
 218 H   :1s     0.0037   0.0145   0.0081   0.0110   0.0281   0.0019   0.0658
 222 H   :2px   -0.0294   0.0018  -0.0216   0.0067   0.0177   0.0277   0.0184
 223 H   :2py    0.0220  -0.0096   0.0241  -0.0151  -0.0129  -0.0140   0.0017
 224 H   :2pz    0.0067  -0.0085  -0.0064  -0.0175  -0.0105   0.0024  -0.0279
 225 H   :1s     0.2279  -0.3793   0.1157  -0.1894  -0.0476   0.1129  -0.1057
 226 H   :1s     0.0187  -0.1251   0.0093  -0.1368  -0.0034  -0.0393   0.0170
 227 H   :1s     0.0140  -0.0355   0.0112  -0.0198   0.0084   0.0017  -0.0094
 231 H   :2px   -0.0026   0.0234  -0.0066   0.0124   0.0084   0.0037  -0.0002
 232 H   :2py    0.0230  -0.0559   0.0060  -0.0404   0.0003   0.0000  -0.0023
 233 H   :2pz    0.0041  -0.0110   0.0130  -0.0206  -0.0073   0.0050  -0.0034
 234 H   :1s     0.1141   0.0258  -0.1961   0.3714   0.3388  -0.0519  -0.0046
 235 H   :1s    -0.0087  -0.0108  -0.0901   0.0411   0.0901  -0.0879   0.0130
 236 H   :1s     0.0082  -0.0075  -0.0020   0.0326   0.0419  -0.0203   0.0059
 240 H   :2px   -0.0029  -0.0054   0.0081  -0.0140  -0.0165   0.0074   0.0049
 241 H   :2py    0.0093  -0.0142  -0.0046   0.0007   0.0140  -0.0022  -0.0010
 242 H   :2pz   -0.0070   0.0015   0.0373  -0.0428  -0.0483   0.0246  -0.0014
 243 H   :1s    -0.2624   0.3155   0.1537   0.1279  -0.3226   0.2615   0.0088
 244 H   :1s    -0.0464   0.1238  -0.0081  -0.0081  -0.1111  -0.0149   0.0364
 245 H   :1s    -0.0143   0.0444   0.0002   0.0191  -0.0218   0.0155  -0.0025
 249 H   :2px    0.0215  -0.0393  -0.0054  -0.0094   0.0425  -0.0156  -0.0054
 250 H   :2py    0.0195  -0.0372  -0.0028  -0.0106   0.0335  -0.0065  -0.0091
 251 H   :2pz   -0.0053   0.0026   0.0129  -0.0040  -0.0159   0.0012   0.0038

    Orbital        25       26       27       28       29       30       31
   2 C   :1s     0.0968   0.0190   0.1185  -0.0081  -0.1172  -0.0125  -0.0061
   3 C   :1s     0.0627   0.0838  -0.0452   0.0671  -0.1464   0.0092  -0.0380
   4 C   :1s     0.1784  -0.2656   0.0078  -0.0994  -1.2438  -0.4609   0.0339
   5 C   :2px    0.1999  -0.0437  -0.3567   0.0066   0.0134   0.0307  -0.0084
   6 C   :2py    0.2412  -0.0716   0.1270   0.0252   0.0631  -0.0496  -0.0353
   7 C   :2pz   -0.2316  -0.1918  -0.0146   0.0050  -0.0351   0.0210  -0.0952
   8 C   :2px   -0.0267  -0.0584   0.0933  -0.0445  -0.0487   0.0908  -0.1023
   9 C   :2py   -0.1283   0.1594  -0.1430   0.0571   0.0710  -0.0108   0.0469
  10 C   :2pz    0.1179   0.1231   0.0200   0.0311  -0.0053   0.0074  -0.0928
  11 C   :2px   -0.0739  -0.0313   0.0064  -0.0965  -0.1613   0.7915   0.5463
  12 C   :2py    0.0503  -0.0422   0.0140   0.0720  -0.0290  -0.0086  -0.0070
  13 C   :2pz    0.0176   0.0329  -0.0006   0.0595  -0.1276  -0.0501  -0.1557
  15 C   :3d1-   0.0063   0.0145   0.0021   0.0304   0.0010  -0.0015   0.0030
  16 C   :3d0   -0.0125  -0.0127   0.0002  -0.0102   0.0000   0.0033  -0.0024
  17 C   :3d1+  -0.0035   0.0075   0.0009  -0.0243   0.0087   0.0035  -0.0079
  18 C   :3d2+   0.0087  -0.0112   0.0054  -0.0044  -0.0002  -0.0036  -0.0013
  19 C   :3d2-   0.0172  -0.0337   0.0104  -0.0058  -0.0033   0.0088  -0.0333
  20 C   :3d1-   0.0179  -0.0391   0.0020  -0.0077   0.0078  -0.0102   0.0033
  21 C   :3d0    0.0243  -0.0067   0.0363  -0.0041  -0.0167   0.0104  -0.0471
  22 C   :3d1+   0.0393   0.0104   0.0122   0.0140   0.0144  -0.0171  -0.0093
  23 C   :3d2+   0.0820  -0.0254  -0.0000   0.0113   0.0037  -0.0281   0.0161
  25 C   :1s     0.0122   0.0567  -0.0024   0.0185  -0.0566  -0.0394   0.0944
  26 C   :1s     0.1402   0.1509   0.0443   0.0320  -0.1101  -0.1083   0.1099
  27 C   :1s     0.2673   0.4780  -0.0181  -0.0856   1.0679   0.2417  -3.0895
  28 C   :2px    0.0196  -0.0782   0.1066  -0.0176   0.0176  -0.0487  -0.0076
  29 C   :2py   -0.4304   0.2895   0.0873  -0.0521   0.0112   0.0252   0.0027
  30 C   :2pz    0.2542   0.4062   0.0015   0.0288   0.1334   0.0276  -0.1186
  31 C   :2px   -0.1268   0.0154  -0.1694  -0.0405  -0.0067   0.2132  -0.0326
  32 C   :2py    0.2209  -0.1250   0.0376   0.0897  -0.0574  -0.1474   0.0371
  33 C   :2pz   -0.1929  -0.2730   0.0031  -0.0087  -0.0199   0.0344   0.0933
  34 C   :2px    0.0212   0.0060   0.0593   0.2973  -0.3239   1.3299   0.4799
  35 C   :2py   -0.0392   0.0082  -0.0076  -0.3161   0.0879  -0.4631  -0.5050
  36 C   :2pz    0.0129   0.0497   0.0065   0.0704   0.6384   0.3941  -1.2568
  37 C   :3d2-   0.0138  -0.0092  -0.0055   0.0021  -0.0017  -0.0047  -0.0024
  39 C   :3d0   -0.0193  -0.0243  -0.0006   0.0058   0.0020   0.0007  -0.0080
  41 C   :3d2+   0.0137  -0.0070   0.0118  -0.0061   0.0026   0.0047   0.0004
  42 C   :3d2-   0.0580  -0.0124   0.0074   0.0204   0.0118  -0.0087   0.0169
  43 C   :3d1-   0.0607  -0.0465   0.0194   0.0403  -0.0117  -0.0107   0.0313
  44 C   :3d0    0.0308   0.0421  -0.0011  -0.0028  -0.0089  -0.0125  -0.0265
  45 C   :3d1+  -0.0180   0.0061  -0.0498  -0.0100   0.0124  -0.0062  -0.0024
  46 C   :3d2+  -0.0277  -0.0542  -0.0021  -0.0695   0.0149   0.0841  -0.0242
  48 C   :1s    -0.0371   0.0871   0.0168  -0.0492  -0.1185  -0.0327  -0.0730
  49 C   :1s    -0.0536   0.0383  -0.0336  -0.0543  -0.1039   0.0387  -0.0944
  50 C   :1s    -0.2629   0.0864   0.2072   0.5870  -1.6562  -0.6705   1.8178
  51 C   :2px   -0.1341   0.2055  -0.1155   0.0222  -0.0698  -0.0543  -0.0106
  52 C   :2py    0.3114  -0.3011  -0.0297  -0.0477  -0.0869  -0.0498  -0.0188
  53 C   :2pz   -0.0707  -0.2992   0.0167   0.0135  -0.0517   0.0090  -0.1271
  54 C   :2px   -0.0767   0.0545   0.0515  -0.0727  -0.0538   0.0870  -0.1044
  55 C   :2py   -0.0782   0.0006   0.1177   0.0537  -0.1074  -0.1652   0.0328
  56 C   :2pz    0.1185   0.1758  -0.0134   0.0287  -0.0543  -0.0412  -0.0585
  57 C   :2px    0.0676  -0.0844  -0.0590  -0.0356  -0.2974   0.3948   0.0705
  58 C   :2py    0.0156   0.0021  -0.0013  -0.2139   0.1447  -0.4312  -0.7551
  59 C   :2pz    0.0406   0.0096  -0.0240  -0.1457  -0.0050   0.1346  -0.3353
  60 C   :3d2-   0.0091  -0.0066  -0.0138   0.0055   0.0000   0.0024   0.0018
  61 C   :3d1-  -0.0141  -0.0013   0.0010  -0.0105  -0.0036   0.0013   0.0044
  62 C   :3d0   -0.0118  -0.0162   0.0008  -0.0025  -0.0018   0.0048   0.0026
  64 C   :3d2+  -0.0003  -0.0113   0.0031  -0.0028  -0.0001  -0.0076  -0.0007
  65 C   :3d2-   0.0240  -0.0495  -0.0102   0.0480  -0.0199  -0.0202   0.0259
  66 C   :3d1-   0.0234  -0.0185  -0.0269  -0.0273   0.0078   0.0476  -0.0018
  67 C   :3d0    0.0083   0.0160   0.0201   0.0125  -0.0148   0.0068  -0.0048
  68 C   :3d1+   0.0377   0.0021  -0.0083   0.0242  -0.0028  -0.0162   0.0035
  69 C   :3d2+   0.0096  -0.0053   0.0100   0.0033  -0.0052  -0.0268   0.0200
  71 C   :1s     0.0104  -0.0054  -0.1255  -0.0193  -0.0867  -0.1589  -0.0164
  72 C   :1s    -0.0848  -0.0251   0.0212  -0.1062  -0.1161  -0.0694  -0.0908
  73 C   :1s     0.1952  -0.2772  -0.1048  -0.2222  -0.3401   1.9487   0.4769
  74 C   :2px    0.1571  -0.1569   0.1464  -0.0078   0.0931   0.0471   0.0304
  75 C   :2py    0.0151   0.0542   0.3378   0.0059  -0.0230  -0.1060  -0.0326
  76 C   :2pz   -0.0458   0.1143  -0.0378   0.0207   0.0333   0.0493  -0.0893
  77 C   :2px   -0.0874   0.1699   0.0045  -0.0221  -0.0168   0.0502  -0.0555
  78 C   :2py    0.1057  -0.0385  -0.1665   0.0478  -0.1326  -0.0043   0.0357
  79 C   :2pz    0.0125  -0.0887   0.0213   0.0307  -0.0046   0.0031  -0.1158
  80 C   :2px    0.0839  -0.0622  -0.0483  -0.0411   0.0910   0.5996   0.0370
  81 C   :2py    0.0206   0.0134  -0.0040   0.0309  -0.2310  -0.7344  -0.2804
  82 C   :2pz    0.0060  -0.0390   0.0021   0.0808  -0.0038   0.0065  -0.3874
  83 C   :3d2-   0.0091  -0.0123  -0.0063   0.0005  -0.0037  -0.0009  -0.0007
  84 C   :3d1-  -0.0048   0.0029  -0.0006  -0.0390   0.0063   0.0032  -0.0075
  85 C   :3d0   -0.0029  -0.0043  -0.0004   0.0103   0.0007   0.0013   0.0024
  86 C   :3d1+   0.0003  -0.0140   0.0019   0.0048  -0.0037  -0.0006  -0.0030
  88 C   :3d2-   0.0242  -0.0437   0.0022  -0.0015   0.0298   0.0157   0.0150
  89 C   :3d1-  -0.0031  -0.0289   0.0061   0.0099  -0.0187  -0.0147  -0.0072
  90 C   :3d0    0.0163  -0.0233  -0.0356   0.0025  -0.0144   0.0097   0.0367
  91 C   :3d1+  -0.0175   0.0167   0.0051   0.0004  -0.0001   0.0119  -0.0057
  92 C   :3d2+   0.0276   0.0160  -0.0175   0.0008  -0.0239   0.0035  -0.0012
  94 C   :1s     0.0396  -0.0382  -0.0010   0.0007   0.0206  -0.0231  -0.0008
  95 C   :1s     0.1196  -0.0632  -0.0058  -0.0237  -0.1576   0.0467  -0.0723
  96 C   :1s    -0.1575   0.1498   0.0101  -0.0017  -0.7365  -0.3735   0.2826
  97 C   :2px    0.0045  -0.0204   0.0939   0.0183   0.0141  -0.0344  -0.0020
  98 C   :2py   -0.0011  -0.0276  -0.2348   0.0228  -0.0164   0.0352   0.0167
  99 C   :2pz    0.1135   0.0291   0.0071   0.7176  -0.1314  -0.0562   0.1527
 100 C   :2px    0.0799  -0.1010   0.0377  -0.0303  -0.0030   0.0394  -0.0379
 101 C   :2py    0.1150   0.0749  -0.0906   0.0754  -0.0574  -0.0512   0.0875
 102 C   :2pz   -0.0284  -0.0090   0.0186   0.1170  -0.0228  -0.0363   0.0584
 103 C   :2px   -0.0629   0.0440   0.0583   0.0402  -0.0233   0.2126   0.2055
 104 C   :2py    0.0600   0.0166  -0.1244   0.0425  -0.1052  -1.2303  -0.6071
 105 C   :2pz   -0.0054  -0.0035  -0.0021   0.2967  -0.0057  -0.1220   0.0948
 106 C   :3d2-   0.0062  -0.0031  -0.0475   0.0021   0.0040   0.0029   0.0021
 107 C   :3d1-  -0.0020   0.0063   0.0025   0.0138   0.0012   0.0004   0.0021
 109 C   :3d1+  -0.0179  -0.0075   0.0004   0.0335  -0.0061  -0.0019   0.0055
 110 C   :3d2+   0.0157  -0.0036   0.0441   0.0008   0.0043  -0.0015  -0.0014
 111 C   :3d2-   0.0571  -0.0173  -0.0454   0.0290   0.0122   0.0048   0.0472
 112 C   :3d1-  -0.0117   0.0032   0.0061   0.0198  -0.0006   0.0021   0.0049
 113 C   :3d0   -0.0067   0.0006  -0.0012  -0.0019   0.0451   0.0106   0.0009
 114 C   :3d1+  -0.0085  -0.0064   0.0078   0.0595  -0.0097  -0.0077   0.0017
 115 C   :3d2+   0.0452  -0.0621   0.0458  -0.0134   0.0126  -0.0259  -0.0052
 117 C   :1s     0.0604   0.0225   0.0494  -0.0362  -0.1340   0.1788   0.0038
 118 C   :1s     0.1546   0.0449   0.0919   0.0206  -0.2101   0.0539  -0.0287
 119 C   :1s    -0.1103  -0.0909  -0.0785  -0.5533  -0.9799  -0.9954   0.0974
 120 C   :2px   -0.1094   0.0052  -0.1013   0.0202  -0.1167   0.0579   0.0231
 121 C   :2py    0.2800  -0.1654  -0.0135  -0.0094   0.0242  -0.0423  -0.0269
 122 C   :2pz   -0.1358  -0.1933  -0.0165   0.0483  -0.0465   0.0189  -0.1135
 123 C   :2px   -0.1292  -0.0166  -0.0704  -0.0786  -0.0713   0.1679  -0.0397
 124 C   :2py   -0.1733   0.1430   0.0434   0.0001   0.0130  -0.0821  -0.0416
 125 C   :2pz    0.0334   0.1202  -0.0075  -0.0313   0.0236   0.0431  -0.0471
 126 C   :2px    0.0026   0.0142   0.0006   0.0856  -0.1912   0.9434   0.1470
 127 C   :2py   -0.0384   0.0101   0.0084  -0.0257   0.0645  -0.2826  -0.0611
 128 C   :2pz    0.0140   0.0295   0.0097   0.0608  -0.1650   0.1622  -0.2680
 129 C   :3d2-   0.0160  -0.0127  -0.0061   0.0003   0.0002   0.0006  -0.0003
 131 C   :3d0   -0.0114  -0.0159   0.0010   0.0005  -0.0014  -0.0004  -0.0006
 132 C   :3d1+  -0.0029  -0.0105   0.0013   0.0020  -0.0053  -0.0040   0.0052
 133 C   :3d2+   0.0133  -0.0059  -0.0001   0.0029  -0.0011  -0.0021  -0.0007
 134 C   :3d2-  -0.0178  -0.0055  -0.0002  -0.0098  -0.0052   0.0224  -0.0057
 135 C   :3d1-   0.0357  -0.0366  -0.0049  -0.0021   0.0033   0.0196   0.0091
 136 C   :3d0    0.0184   0.0302  -0.0107   0.0013   0.0133  -0.0053   0.0024
 137 C   :3d1+   0.0194  -0.0044   0.0080   0.0096  -0.0072  -0.0339  -0.0027
 138 C   :3d2+   0.0169   0.0081   0.0139   0.0165   0.0147  -0.0225   0.0176
 140 O   :1s     0.0041  -0.0056  -0.0008  -0.0017  -0.0269  -0.0348  -0.0052
 141 O   :1s    -0.0201   0.0078  -0.0000  -0.0021   0.0046  -0.0103  -0.0057
 142 O   :1s    -0.0076  -0.0104   0.0001  -0.0003   0.1801   0.0532  -0.0533
 143 O   :2px    0.0402   0.0104  -0.2897  -0.0112   0.0092   0.0289   0.0017
 144 O   :2py    0.0600  -0.0167   0.7229  -0.0131   0.0215  -0.0335  -0.0103
 145 O   :2pz    0.2434   0.0656  -0.0139  -0.5071   0.0899   0.0474  -0.1533
 146 O   :2px   -0.0049  -0.0051   0.0003   0.0002   0.0113  -0.0015   0.0022
 147 O   :2py   -0.0090  -0.0037   0.0011  -0.0004   0.0111   0.0030   0.0008
 148 O   :2pz   -0.0079  -0.0032   0.0008  -0.0438   0.0086   0.0047  -0.0211
 149 O   :2px    0.0085  -0.0087  -0.0507  -0.0112   0.0657   0.0210  -0.0256
 150 O   :2py    0.0023  -0.0038   0.1273  -0.0068   0.0491   0.1458   0.0521
 151 O   :2pz    0.0210   0.0071  -0.0003  -0.2452   0.0394   0.0572  -0.0620
 162 H   :1s    -0.2812  -0.2082  -0.0699  -0.2315   0.0087   0.0369  -0.0482
 163 H   :1s    -0.0584  -0.0706  -0.1137  -0.0956   0.2195  -0.0644   0.4016
 164 H   :1s    -0.0231  -0.0278  -0.0273  -0.4710   0.2991  -0.0316   0.3940
 168 H   :2px   -0.0158  -0.0034  -0.0003  -0.0260   0.0036  -0.0191   0.0178
 169 H   :2py   -0.0228  -0.0077  -0.0131   0.0252   0.0025   0.0126   0.0832
 170 H   :2pz    0.0148   0.0325   0.0276  -0.0123  -0.0092   0.0067  -0.0349
 171 H   :1s    -0.0346   0.2375  -0.0293   0.1641  -0.0014   0.0156   0.0500
 172 H   :1s     0.0067   0.1314  -0.0968   0.1363   0.1922  -0.0162   0.0150
 173 H   :1s     0.0237   0.0240  -0.0243   0.3921   0.1809  -0.2832  -0.3528
 177 H   :2px    0.0115   0.0051   0.0003   0.0206   0.0149  -0.0440  -0.0035
 178 H   :2py   -0.0118   0.0412  -0.0277  -0.0135   0.0163   0.0228   0.0149
 179 H   :2pz    0.0149   0.0174  -0.0089  -0.0051  -0.0001  -0.0069   0.0254
 180 H   :1s    -0.3290  -0.4470   0.0015   0.0354  -0.0456   0.0068  -0.0522
 181 H   :1s    -0.1908  -0.2680  -0.0144   0.0061   0.1126   0.1369   0.1910
 182 H   :1s    -0.0112   0.0001  -0.0008   0.0802   0.5959   0.6656  -2.1579
 186 H   :2px    0.0004  -0.0009  -0.0072   0.0158   0.0000  -0.0695   0.0046
 187 H   :2py    0.0190  -0.0066   0.0055   0.0046   0.0110   0.0423   0.0065
 188 H   :2pz   -0.0755  -0.1000  -0.0055  -0.0269  -0.0221   0.0007   0.1328
 189 H   :1s     0.2387   0.0480  -0.1221   0.0436   0.0029   0.0088  -0.0072
 190 H   :1s     0.1127   0.0680  -0.1185  -0.0354   0.2838   0.2002  -0.0157
 191 H   :1s     0.0089   0.0241  -0.0191   0.1925   0.5720   0.7251   0.3933
 195 H   :2px   -0.0218  -0.0065   0.0172   0.0108   0.0045  -0.0432   0.0122
 196 H   :2py   -0.0374  -0.0170   0.0323   0.0181  -0.0056   0.0086  -0.0031
 197 H   :2pz    0.0075   0.0177  -0.0049  -0.0209  -0.0000  -0.0088   0.0324
 198 H   :1s    -0.1302  -0.2972   0.0001  -0.0318  -0.0371   0.0088   0.0136
 199 H   :1s    -0.1310  -0.1256  -0.0078  -0.0742   0.2790   0.0092   0.2709
 200 H   :1s    -0.0305  -0.0178   0.0129   0.0837   0.1675  -0.1223   1.3486
 204 H   :2px    0.0018   0.0081   0.0009  -0.0032  -0.0058  -0.0189   0.0191
 205 H   :2py    0.0038   0.0205   0.0045  -0.0083  -0.0006   0.0097  -0.0486
 206 H   :2pz    0.0513   0.0447  -0.0072   0.0058  -0.0295  -0.0043   0.0107
 207 H   :1s     0.0061  -0.0776   0.0711   0.2219  -0.0424  -0.0247   0.0446
 208 H   :1s    -0.0516  -0.0385   0.1080   0.1141   0.1699   0.0533  -0.2517
 209 H   :1s     0.0054  -0.0366   0.0257   0.5114   0.2019   0.9818  -0.4414
 212 H   :2pz   -0.0003   0.0018   0.0005  -0.0038  -0.0054  -0.0101   0.0003
 213 H   :2px   -0.0065  -0.0017   0.0111   0.0003   0.0224  -0.0014  -0.0386
 214 H   :2py    0.0034  -0.0032  -0.0075   0.0392  -0.0094   0.0015   0.0409
 215 H   :2pz   -0.0112  -0.0209   0.0249  -0.0143   0.0034  -0.0376  -0.0123
 216 H   :1s    -0.1263   0.2334   0.0376  -0.1651   0.0404   0.0114  -0.0464
 217 H   :1s    -0.0192   0.1011   0.0777  -0.1044   0.2891   0.1394   0.0943
 218 H   :1s    -0.0091   0.0162   0.0149  -0.3734   0.4360   1.3405   0.9287
 222 H   :2px    0.0004   0.0327   0.0111  -0.0051   0.0381  -0.0197   0.0042
 223 H   :2py    0.0106  -0.0210  -0.0176  -0.0249  -0.0046   0.0210   0.0017
 224 H   :2pz    0.0016  -0.0121  -0.0083  -0.0057  -0.0182  -0.0002   0.0101
 225 H   :1s    -0.2333   0.2874   0.0176  -0.0048   0.0088   0.0109   0.0147
 226 H   :1s    -0.0631   0.1356   0.0657   0.0418   0.2139  -0.2679   0.0198
 227 H   :1s    -0.0257   0.0321   0.0170   0.0003   0.4754  -1.2596  -0.7764
 231 H   :2px    0.0164  -0.0235  -0.0039   0.0006  -0.0048   0.0090  -0.0286
 232 H   :2py   -0.0288   0.0476   0.0191  -0.0003   0.0038  -0.0094   0.0066
 233 H   :2pz   -0.0028   0.0185   0.0068  -0.0018   0.0097  -0.0106   0.0494
 234 H   :1s    -0.1677  -0.2325   0.0106   0.0260  -0.0259  -0.0089  -0.0185
 235 H   :1s    -0.0487  -0.1426   0.0122   0.0423   0.0668  -0.0733   0.2173
 236 H   :1s    -0.0116  -0.0340   0.0008  -0.0229   0.4116  -0.7811   1.0652
 240 H   :2px   -0.0000   0.0081   0.0009   0.0137   0.0170  -0.0127  -0.0279
 241 H   :2py   -0.0077  -0.0004   0.0001   0.0081  -0.0103   0.0050   0.0153
 242 H   :2pz    0.0232   0.0493  -0.0017  -0.0155   0.0246  -0.0283   0.0338
 243 H   :1s     0.2395  -0.0593  -0.0794  -0.0033   0.0080   0.0096  -0.0042
 244 H   :1s     0.1894  -0.0257   0.0022   0.0860   0.2299  -0.1573   0.1652
 245 H   :1s     0.0346   0.0014  -0.0076   0.0616   0.4932  -0.9355  -0.2913
 249 H   :2px   -0.0485   0.0100   0.0017  -0.0052  -0.0120  -0.0141  -0.0603
 250 H   :2py   -0.0423   0.0031  -0.0006  -0.0065   0.0035   0.0182   0.0036
 251 H   :2pz    0.0126   0.0071  -0.0028   0.0055   0.0034  -0.0171   0.0499

    Orbital        32       33       34       35       36       37
   2 C   :1s     0.1304   0.0393  -0.0180   0.0659  -0.0648   0.0009
   3 C   :1s     0.0942  -0.0131  -0.0345   0.1807  -0.0914  -0.1640
   4 C   :1s    -4.7694   0.0453   0.0015  -0.0753   5.0449   0.8523
   5 C   :2px   -0.0179   0.0126   0.0017   0.0354  -0.0341  -0.0043
   6 C   :2py   -0.1306  -0.0653   0.0459  -0.0579   0.0104  -0.0183
   7 C   :2pz    0.0382   0.0579   0.1050   0.0236   0.0159  -0.1345
   8 C   :2px    0.0515  -0.0691   0.0461  -0.0683  -0.1132  -0.0084
   9 C   :2py    0.0314  -0.1284   0.1659  -0.2782  -0.0055  -0.0698
  10 C   :2pz    0.0470   0.0447   0.0602   0.1041  -0.0011  -0.0938
  11 C   :2px   -0.4296   0.9978   0.1012  -0.8336  -1.3898  -0.2771
  12 C   :2py   -1.8562  -0.0884   0.5178  -0.0897   1.9894  -0.8654
  13 C   :2pz    0.2906   0.6599   1.1712  -0.2055   0.3330  -3.1698
  19 C   :3d2-   0.0166  -0.0481   0.0094  -0.0120  -0.0086   0.0252
  20 C   :3d1-  -0.0093   0.0046  -0.0304   0.0160  -0.0018   0.1139
  21 C   :3d0   -0.0445   0.0181  -0.0058   0.0749   0.0018  -0.0521
  22 C   :3d1+  -0.0055  -0.0360  -0.0404   0.0425   0.0136   0.0479
  23 C   :3d2+   0.0141   0.0024  -0.0303  -0.0213   0.1071  -0.0123
  25 C   :1s    -0.0012   0.1036   0.0013  -0.0731   0.0574  -0.0432
  26 C   :1s    -0.0316  -0.0609  -0.0834   0.0763   0.0860   0.0230
  27 C   :1s     1.5448   1.6273  -1.9796   4.3144  -2.6267   0.1626
  28 C   :2px    0.0335   0.0612  -0.0419   0.0389  -0.0252  -0.0142
  29 C   :2py    0.0362  -0.0024   0.0461  -0.0268  -0.0740  -0.0176
  30 C   :2pz   -0.0043  -0.0772  -0.0040   0.0568  -0.0275   0.0077
  31 C   :2px    0.0596  -0.3405   0.3165  -0.3816  -0.1672  -0.0842
  32 C   :2py    0.0460  -0.0208  -0.1365   0.0811   0.1035   0.0317
  33 C   :2pz   -0.0513  -0.1209   0.0564  -0.0997   0.0635  -0.0380
  34 C   :2px   -1.1781  -0.2449   0.8558   1.3645   0.4510   3.4509
  35 C   :2py   -0.9985   0.6256  -0.6509  -1.3490  -0.2877   1.2647
  36 C   :2pz    0.1030  -1.4285  -1.1326   3.1335  -1.6632   1.9130
  42 C   :3d2-   0.0304   0.0473  -0.0356  -0.0053   0.0035   0.0715
  43 C   :3d1-   0.0418  -0.0116  -0.0528  -0.0089   0.0513   0.0163
  44 C   :3d0    0.0274   0.0738  -0.0332  -0.0198   0.0206  -0.0775
  45 C   :3d1+   0.0561  -0.0792   0.0579  -0.0440  -0.0335   0.0129
  46 C   :3d2+   0.0250  -0.0157   0.0425  -0.0911  -0.0105   0.0152
  48 C   :1s    -0.0649   0.0810  -0.0868   0.0568   0.0725   0.0033
  49 C   :1s     0.0473   0.0302  -0.1178   0.0163   0.1185   0.1303
  50 C   :1s     2.9818  -0.0459   0.2042  -0.3132   0.3023   2.7380
  51 C   :2px   -0.0279  -0.0152   0.0010   0.0274  -0.0214   0.0127
  52 C   :2py   -0.0963   0.0480  -0.0118   0.0563   0.0190  -0.0196
  53 C   :2pz    0.0423   0.0681  -0.0301  -0.1311   0.0223   0.0439
  54 C   :2px   -0.0249   0.1251  -0.0955   0.1656  -0.1094   0.2160
  55 C   :2py   -0.0192  -0.0121  -0.2334   0.2782   0.1257   0.1416
  56 C   :2pz    0.0171   0.0541  -0.1300   0.0824   0.0059   0.1318
  57 C   :2px   -0.9314  -0.1571  -0.6831   0.1382   1.1489  -2.4402
  58 C   :2py   -0.8938   0.2590  -0.1779   1.7730  -0.6612  -0.8004
  59 C   :2pz   -0.1406   1.2776  -0.0208  -1.9963   0.7600   0.9387
  65 C   :3d2-   0.0162  -0.0131  -0.0679  -0.0075   0.0318  -0.0182
  66 C   :3d1-  -0.0114   0.0515   0.0063  -0.0957   0.0065  -0.0267
  67 C   :3d0    0.0444   0.0266  -0.0428   0.0147   0.0185   0.1313
  68 C   :3d1+  -0.0152  -0.0119   0.0389   0.0157   0.0039   0.0701
  69 C   :3d2+  -0.0158   0.0223  -0.0327  -0.0251   0.0480  -0.0704
  71 C   :1s     0.0755  -0.0676   0.0344  -0.0332  -0.0103  -0.0240
  72 C   :1s     0.0733  -0.2286   0.0019   0.0497   0.0651   0.2643
  73 C   :1s    -3.0826  -0.1962  -1.2440   1.4677   3.2205  -2.2723
  74 C   :2px    0.0059   0.0384   0.0141   0.0301  -0.0037  -0.0037
  75 C   :2py   -0.0219  -0.0839   0.0151  -0.0443   0.0076  -0.0105
  76 C   :2pz    0.0114  -0.0137  -0.1309  -0.0616  -0.0461  -0.0577
  77 C   :2px   -0.0326   0.1717  -0.0314   0.1171  -0.1462   0.1879
  78 C   :2py   -0.1481  -0.1505  -0.0353   0.0212  -0.0561  -0.0174
  79 C   :2pz    0.0074   0.0110  -0.1788  -0.0802  -0.0917  -0.0070
  80 C   :2px   -1.1328   0.2543  -0.2113  -0.0001   1.5350  -0.2298
  81 C   :2py    0.4457  -0.6570   0.3134  -1.4304  -0.4388  -0.4418
  82 C   :2pz   -0.0407  -0.3994  -1.3075  -0.1402  -0.5851  -1.9512
  88 C   :3d2-   0.0613   0.0519  -0.0327  -0.0395   0.0507  -0.0205
  89 C   :3d1-   0.0046   0.0101   0.0028  -0.0229  -0.0244  -0.0493
  90 C   :3d0   -0.0345  -0.0288   0.0140   0.0304   0.0277   0.0170
  91 C   :3d1+   0.0016   0.0222   0.0673   0.0055  -0.0065   0.1045
  92 C   :3d2+  -0.0307  -0.0134  -0.0324   0.0532  -0.0232   0.0066
  94 C   :1s    -0.0050   0.0621   0.0157  -0.0228  -0.0133   0.0025
  95 C   :1s    -0.1123  -0.1421   0.0158   0.1611  -0.2143   0.0239
  96 C   :1s     3.6985  -0.2063   1.8094  -1.6275  -6.9526   0.5841
  97 C   :2px   -0.0001   0.0247   0.0126  -0.0100  -0.0351   0.0124
  98 C   :2py    0.0005   0.0258   0.0205  -0.0164  -0.0347  -0.0073
  99 C   :2pz   -0.0652  -0.0053   0.0159   0.0417   0.0199   0.0430
 100 C   :2px   -0.0292   0.0318  -0.0314  -0.0482  -0.0314  -0.0125
 101 C   :2py   -0.1554  -0.0431  -0.0090   0.0160   0.0161   0.0024
 102 C   :2pz   -0.0046  -0.0007   0.0166   0.0237   0.0116   0.0541
 103 C   :2px    1.0561   0.3411   0.4938   0.4311  -2.3677   0.4188
 104 C   :2py   -0.3085  -1.4000   0.4660  -0.6177   0.8478   0.3803
 105 C   :2pz   -0.0808   0.0675  -0.2251   0.1811   0.0185   0.9413
 111 C   :3d2-   0.0260  -0.0021  -0.0294   0.0159   0.0669  -0.0588
 112 C   :3d1-  -0.0036   0.0174   0.0473  -0.0166   0.0060  -0.0423
 113 C   :3d0   -0.0137  -0.0022  -0.0169  -0.0193   0.0417   0.0045
 114 C   :3d1+  -0.0077  -0.0025  -0.0080  -0.0057  -0.0049  -0.0578
 115 C   :3d2+   0.0416  -0.0180  -0.0256  -0.0039   0.1170  -0.0003
 117 C   :1s    -0.0450  -0.0508   0.0346  -0.0285   0.0156  -0.0076
 118 C   :1s    -0.0418  -0.0678  -0.0377   0.0094   0.0224   0.0175
 119 C   :1s     0.6962  -1.2381   1.2406  -4.1046   0.2286  -2.5390
 120 C   :2px   -0.0500  -0.0063   0.0099  -0.0279  -0.0482  -0.0104
 121 C   :2py   -0.1101   0.0705   0.0497   0.0024  -0.1401   0.0238
 122 C   :2pz    0.0359   0.0668   0.1018   0.0074   0.0680   0.0645
 123 C   :2px   -0.0130  -0.3366   0.2476  -0.2715  -0.1929  -0.0255
 124 C   :2py   -0.1460   0.1880   0.0048   0.0390  -0.2274   0.0925
 125 C   :2pz    0.0098  -0.0674   0.1887  -0.1195   0.0294   0.0771
 126 C   :2px   -0.5682  -0.0899  -0.2761   0.7038  -0.7283   0.2150
 127 C   :2py   -0.2945   0.6276   0.6838  -0.1407  -1.4973  -0.1132
 128 C   :2pz    0.0481   0.4141   1.0100   0.0374   0.7003   0.7992
 134 C   :3d2-   0.0302  -0.0167   0.0236  -0.0434  -0.0427   0.0353
 135 C   :3d1-   0.0176  -0.0034   0.0101  -0.0196  -0.0191   0.0156
 136 C   :3d0    0.0066  -0.0372   0.0163  -0.0114  -0.0143   0.0054
 137 C   :3d1+   0.0211   0.0612  -0.0219   0.0324   0.0201   0.0112
 138 C   :3d2+   0.0032   0.0528  -0.0445   0.0136  -0.0077   0.0080
 140 O   :1s     0.0668  -0.0189   0.0287  -0.0063  -0.0980   0.0145
 141 O   :1s     0.0082   0.0147   0.0205  -0.0475  -0.0872   0.0152
 142 O   :1s    -0.4216   0.2394  -0.1256  -0.1551   0.3426   0.0376
 143 O   :2px   -0.0049   0.0157  -0.0028   0.0114   0.0125  -0.0074
 144 O   :2py   -0.0127  -0.0446   0.0187  -0.0447   0.0333  -0.0130
 145 O   :2pz    0.0459   0.0101  -0.0270  -0.0335  -0.0265  -0.1206
 146 O   :2px   -0.0116   0.0161  -0.0020  -0.0191   0.0109   0.0035
 147 O   :2py    0.0023   0.0100  -0.0030  -0.0091  -0.0017  -0.0100
 148 O   :2pz    0.0043   0.0016  -0.0033  -0.0080  -0.0037  -0.0369
 149 O   :2px   -0.2292   0.0355  -0.1070  -0.1346   0.3606  -0.0657
 150 O   :2py    0.0257   0.2132  -0.0762   0.0459   0.0159  -0.0594
 151 O   :2pz    0.0318  -0.0236   0.0479  -0.0540  -0.0182  -0.1218
 160 O   :3d1+  -0.0008  -0.0005   0.0011  -0.0037  -0.0006  -0.0118
 162 H   :1s     0.0087   0.0025   0.0004  -0.0106  -0.0092  -0.0457
 163 H   :1s    -0.0084  -0.2107  -0.0152  -0.6424   0.0568   0.4025
 164 H   :1s    -1.4266  -1.3903  -1.5791  -1.4270   0.8865   4.9164
 168 H   :2px    0.0086   0.0417   0.0232  -0.0270  -0.0553  -0.0530
 169 H   :2py    0.0067  -0.0252   0.0319  -0.0282  -0.0011  -0.0414
 170 H   :2pz   -0.0074  -0.0141  -0.0651   0.0848  -0.0333   0.0045
 171 H   :1s     0.0108  -0.0252   0.0115   0.0127  -0.0192   0.0232
 172 H   :1s     0.0883  -0.1630   0.3373  -0.4761   0.1465  -0.3837
 173 H   :1s    -1.8094   0.1896   2.2914  -1.3484   2.1821  -4.1780
 177 H   :2px    0.0065  -0.0187   0.0211  -0.0103  -0.0285   0.0550
 178 H   :2py    0.0752  -0.0415   0.0079  -0.0607  -0.0130  -0.0056
 179 H   :2pz    0.0252  -0.0027  -0.0199  -0.0590   0.0369   0.0176
 180 H   :1s     0.0245   0.0259   0.0330  -0.0196   0.0150   0.0035
 181 H   :1s    -0.1668  -0.4444   0.3267  -0.2881   0.0644   0.0835
 182 H   :1s     0.2281  -2.6739  -0.7112   3.7923  -2.0713   2.0791
 186 H   :2px    0.0460   0.0113  -0.0083   0.0559   0.0203   0.0355
 187 H   :2py    0.0448  -0.0100  -0.0237  -0.0168   0.0166  -0.0402
 188 H   :2pz   -0.0344  -0.0218   0.0747  -0.1573   0.0685  -0.0559
 189 H   :1s    -0.0411  -0.0267  -0.0230   0.0094   0.0013   0.0171
 190 H   :1s    -0.0398   0.0493   0.4472  -0.6255  -0.1277  -0.3232
 191 H   :1s     1.7751   0.4706   1.0721  -4.5932  -0.1972   1.8621
 195 H   :2px    0.0506  -0.0593   0.0054   0.0592   0.0605   0.0885
 196 H   :2py    0.0504   0.0251  -0.0866   0.0156   0.0238   0.0884
 197 H   :2pz   -0.0002   0.0090   0.0679  -0.0011  -0.0140  -0.0331
 198 H   :1s     0.0126   0.0002   0.0074  -0.0041   0.0010   0.0198
 199 H   :1s    -0.2016  -0.2490   0.4557  -0.2388  -0.1067  -0.8068
 200 H   :1s     0.3669  -2.4334   1.6933   2.9271  -1.2115  -2.1621
 204 H   :2px    0.0372  -0.0035  -0.0336  -0.0136   0.0186  -0.0239
 205 H   :2py    0.0476  -0.0081   0.0285   0.0851  -0.0292   0.0167
 206 H   :2pz    0.0086   0.0086  -0.0683   0.1443  -0.0306   0.1033
[...]

 omega B, excitation energy, moment :    0.131955    0.263910    9.540329
 QUADRUPOLE           5           1


 Second order moment in a.u. for
 A operator label,  symmetry, spin:      YZROTSTR    1    0
 B operator label,  symmetry, spin:      XDIPVEL     1    0
 Excited state no., symmetry, spin:            10    1    0

 omega B, excitation energy, moment :    0.131955    0.263910   -0.319274
 QUADRUPOLE           6           1


 Second order moment in a.u. for
 A operator label,  symmetry, spin:      XDIPVEL     1    0
 B operator label,  symmetry, spin:      YDIPVEL     1    0
 Excited state no., symmetry, spin:            10    1    0

 omega B, excitation energy, moment :    0.131955    0.263910    1.750043
 ELECTRIC           1           2


 Second order moment in a.u. for
 A operator label,  symmetry, spin:      YDIPVEL     1    0
 B operator label,  symmetry, spin:      YDIPVEL     1    0
 Excited state no., symmetry, spin:            10    1    0

 omega B, excitation energy, moment :    0.131955    0.263910    2.055511
 ELECTRIC           2           2


 Second order moment in a.u. for
 A operator label,  symmetry, spin:      ZDIPVEL     1    0
 B operator label,  symmetry, spin:      YDIPVEL     1    0
 Excited state no., symmetry, spin:            10    1    0

 omega B, excitation energy, moment :    0.131955    0.263910   12.253597
 ELECTRIC           3           2


 Second order moment in a.u. for
 A operator label,  symmetry, spin:      XANGMOM     1    0
 B operator label,  symmetry, spin:      YDIPVEL     1    0
 Excited state no., symmetry, spin:            10    1    0

 omega B, excitation energy, moment :    0.131955    0.263910   10.704923
 MAGNETIC           1           2          10


 Second order moment in a.u. for
 A operator label,  symmetry, spin:      YANGMOM     1    0
 B operator label,  symmetry, spin:      YDIPVEL     1    0
 Excited state no., symmetry, spin:            10    1    0

 omega B, excitation energy, moment :    0.131955    0.263910    0.557644
 MAGNETIC           2           2          10


 Second order moment in a.u. for
 A operator label,  symmetry, spin:      ZANGMOM     1    0
 B operator label,  symmetry, spin:      YDIPVEL     1    0
 Excited state no., symmetry, spin:            10    1    0

 omega B, excitation energy, moment :    0.131955    0.263910    1.196877
 MAGNETIC           3           2          10


 Second order moment in a.u. for
 A operator label,  symmetry, spin:      XXROTSTR    1    0
 B operator label,  symmetry, spin:      YDIPVEL     1    0
 Excited state no., symmetry, spin:            10    1    0

 omega B, excitation energy, moment :    0.131955    0.263910   -0.241013
 QUADRUPOLE           1           2


 Second order moment in a.u. for
 A operator label,  symmetry, spin:      YYROTSTR    1    0
 B operator label,  symmetry, spin:      YDIPVEL     1    0
 Excited state no., symmetry, spin:            10    1    0

 omega B, excitation energy, moment :    0.131955    0.263910   -0.048973
 QUADRUPOLE           2           2


 Second order moment in a.u. for
 A operator label,  symmetry, spin:      ZZROTSTR    1    0
 B operator label,  symmetry, spin:      YDIPVEL     1    0
 Excited state no., symmetry, spin:            10    1    0

 omega B, excitation energy, moment :    0.131955    0.263910    0.819175
 QUADRUPOLE           3           2


 Second order moment in a.u. for
 A operator label,  symmetry, spin:      XYROTSTR    1    0
 B operator label,  symmetry, spin:      YDIPVEL     1    0
 Excited state no., symmetry, spin:            10    1    0

 omega B, excitation energy, moment :    0.131955    0.263910   -3.332362
 QUADRUPOLE           4           2


 Second order moment in a.u. for
 A operator label,  symmetry, spin:      XZROTSTR    1    0
 B operator label,  symmetry, spin:      YDIPVEL     1    0
 Excited state no., symmetry, spin:            10    1    0

 omega B, excitation energy, moment :    0.131955    0.263910   -2.772726
 QUADRUPOLE           5           2


 Second order moment in a.u. for
 A operator label,  symmetry, spin:      YZROTSTR    1    0
 B operator label,  symmetry, spin:      YDIPVEL     1    0
 Excited state no., symmetry, spin:            10    1    0

 omega B, excitation energy, moment :    0.131955    0.263910   -4.144314
 QUADRUPOLE           6           2


 Second order moment in a.u. for
 A operator label,  symmetry, spin:      XDIPVEL     1    0
 B operator label,  symmetry, spin:      ZDIPVEL     1    0
 Excited state no., symmetry, spin:            10    1    0

 omega B, excitation energy, moment :    0.131955    0.263910    2.135405
 ELECTRIC           1           3


 Second order moment in a.u. for
 A operator label,  symmetry, spin:      YDIPVEL     1    0
 B operator label,  symmetry, spin:      ZDIPVEL     1    0
 Excited state no., symmetry, spin:            10    1    0

 omega B, excitation energy, moment :    0.131955    0.263910   12.253597
 ELECTRIC           2           3


 Second order moment in a.u. for
 A operator label,  symmetry, spin:      ZDIPVEL     1    0
 B operator label,  symmetry, spin:      ZDIPVEL     1    0
 Excited state no., symmetry, spin:            10    1    0

 omega B, excitation energy, moment :    0.131955    0.263910   -2.334259
 ELECTRIC           3           3


 Second order moment in a.u. for
 A operator label,  symmetry, spin:      XANGMOM     1    0
 B operator label,  symmetry, spin:      ZDIPVEL     1    0
 Excited state no., symmetry, spin:            10    1    0

 omega B, excitation energy, moment :    0.131955    0.263910   -1.694354
 MAGNETIC           1           3          10


 Second order moment in a.u. for
 A operator label,  symmetry, spin:      YANGMOM     1    0
 B operator label,  symmetry, spin:      ZDIPVEL     1    0
 Excited state no., symmetry, spin:            10    1    0

 omega B, excitation energy, moment :    0.131955    0.263910   -0.239370
 MAGNETIC           2           3          10


 Second order moment in a.u. for
 A operator label,  symmetry, spin:      ZANGMOM     1    0
 B operator label,  symmetry, spin:      ZDIPVEL     1    0
 Excited state no., symmetry, spin:            10    1    0

 omega B, excitation energy, moment :    0.131955    0.263910    8.431929
 MAGNETIC           3           3          10


 Second order moment in a.u. for
 A operator label,  symmetry, spin:      XXROTSTR    1    0
 B operator label,  symmetry, spin:      ZDIPVEL     1    0
 Excited state no., symmetry, spin:            10    1    0

 omega B, excitation energy, moment :    0.131955    0.263910    7.910955
 QUADRUPOLE           1           3


 Second order moment in a.u. for
 A operator label,  symmetry, spin:      YYROTSTR    1    0
 B operator label,  symmetry, spin:      ZDIPVEL     1    0
 Excited state no., symmetry, spin:            10    1    0

 omega B, excitation energy, moment :    0.131955    0.263910   -3.191122
 QUADRUPOLE           2           3


 Second order moment in a.u. for
 A operator label,  symmetry, spin:      ZZROTSTR    1    0
 B operator label,  symmetry, spin:      ZDIPVEL     1    0
 Excited state no., symmetry, spin:            10    1    0

 omega B, excitation energy, moment :    0.131955    0.263910    0.588488
 QUADRUPOLE           3           3


 Second order moment in a.u. for
 A operator label,  symmetry, spin:      XYROTSTR    1    0
 B operator label,  symmetry, spin:      ZDIPVEL     1    0
 Excited state no., symmetry, spin:            10    1    0

 omega B, excitation energy, moment :    0.131955    0.263910   -2.919736
 QUADRUPOLE           4           3


 Second order moment in a.u. for
 A operator label,  symmetry, spin:      XZROTSTR    1    0
 B operator label,  symmetry, spin:      ZDIPVEL     1    0
 Excited state no., symmetry, spin:            10    1    0

 omega B, excitation energy, moment :    0.131955    0.263910    1.549648
 QUADRUPOLE           5           3


 Second order moment in a.u. for
 A operator label,  symmetry, spin:      YZROTSTR    1    0
 B operator label,  symmetry, spin:      ZDIPVEL     1    0
 Excited state no., symmetry, spin:            10    1    0

 omega B, excitation energy, moment :    0.131955    0.263910    0.711090
 QUADRUPOLE           6           3


       *******************************************************************
       ************ FINAL RESULTS FROM TWO-PHOTON CALCULATION ************
       *******************************************************************

 The two-photon absorption strength for an average molecular  
 orientation is computed according to formulas given by       
 P.R. Monson and W.M. McClain in J. Chem. Phys. 53:29, 1970   
 and W.M. McClain in J. Chem. Phys. 55:2789, 1971.            
 The absorption depends on the light polarization.            
 A monochromatic light source is assumed.                     

 All results are presented in atomic units, except the        
 excitation energy which is given in eV and two-photon cross  
 section which is given in GM. A FWHM of 0.1 eV is assumed.   

   Conversion factors:
      1 a.u. = 1.896788 10^{-50} cm^4 s/photon
      1 GM = 10^{-50} cm^4 s/photon


                  +--------------------------------+
                  | Two-photon transition tensor S |
                  +--------------------------------+
     ---------------------------------------------------------------------------------
     Sym  No  Energy        Sxx        Syy        Szz        Sxy        Sxz        Syz
     ---------------------------------------------------------------------------------
       1   1    4.15     1.1    -0.7    -0.1    -3.0    -0.5    -0.1
       1   2    5.63     0.7     0.0    -1.1     0.6    -0.3     1.1
       1   3    6.12     2.0     0.4     0.7     2.7    -0.7    -0.4
       1   4    6.16    -0.5    -0.3    -0.4    -0.1    -1.1     0.5
       1   5    6.28    -0.7     0.0    -0.5    -0.4     0.3     0.7
       1   6    6.86     1.4    -0.5    -0.6    -0.2     0.8     0.1
       1   7    6.92     4.0     8.9     3.5    -4.7     2.1    -2.1
       1   8    6.97     2.8     6.1     1.4    -4.2    -1.3    -0.8
       1   9    7.08    -2.8    -2.8    -1.3     1.6    -1.6     0.7
       1  10    7.18     9.5    -4.1     0.6    -2.8     1.5     0.7


         +-------------------------------------------------+
         | Two-photon transition tensor P (velocity gauge) |
         +-------------------------------------------------+
     ---------------------------------------------------------------------------------
     Sym  No  Frequ.        Pxx        Pyy        Pzz        Pxy        Pxz        Pyz
     ---------------------------------------------------------------------------------
       1   1 0.07630      0.917      0.507     -0.670      0.637     -3.347      7.738
       1   2 0.10348    -15.438     -2.440     -1.415     -4.505      0.799     -0.249
       1   3 0.11246      5.941      3.453      4.104     -1.411      8.937     -8.200
       1   4 0.11310     33.879     21.012      6.701    -10.153     -0.439      0.243
       1   5 0.11547     16.965    -18.942     -3.274     10.958     -0.778      0.009
       1   6 0.12597      2.021    -13.867     -4.750      3.584     -0.332      1.755
       1   7 0.12706      3.392     -5.913     -0.851      5.573      0.943      0.468
       1   8 0.12809      4.223     16.989      2.316     -1.812     -0.340      0.571
       1   9 0.13012     14.262     21.015      1.633     20.320     -2.109     -2.222
       1  10 0.13195      0.153      2.056     -2.334      1.750      2.135     12.254


        +--------------------------------------------------+
        | El. dip.-mag. dip. trans. tensor  M (vel. gauge) |
        +--------------------------------------------------+
     ------------------------------------------------------------------------------------------------------------------
     Sym  No  Energy        Mxx        Myy        Mzz        Mxy        Mxz        Myx        Myz        Mzx        Mzy
     ------------------------------------------------------------------------------------------------------------------
       1   1    4.15     -3.682     -4.370      3.909     -0.321      0.152     -0.089      0.347     -0.269      1.179
       1   2    5.63     -0.668      2.493     -0.517      1.071     -3.327      2.790     -1.977     -4.034     -3.260
       1   3    6.12      0.143      7.550     -9.072     -2.055      2.290      1.634     -6.870     -0.713      1.976
       1   4    6.16     -0.879      0.900      1.137      1.333     -1.526     -2.824     -4.218    -12.339     13.239
       1   5    6.28     -1.889     -2.965     -0.032     -1.505     -1.894     -2.892      1.754     -7.295    -15.228
       1   6    6.86     -1.970      1.785      0.834      3.642      0.788      2.265      0.859      8.319     -4.674
       1   7    6.92      8.768     -9.230      0.296    -22.817      4.477      6.697      1.864      2.271     -1.497
       1   8    6.97      5.216     -8.215      1.814    -15.087      4.375      5.408      0.490     -3.444      7.251
       1   9    7.08     -5.249      3.517     -1.083      7.228     -0.728     -3.514     -2.018      6.671     10.424
       1  10    7.18      8.234      0.558      8.432     10.705     -1.694     12.528     -0.239     -0.319      1.197


        +--------------------------------------------------+
        | El. dip.-el. quad. trans. tensor  T (vel. gauge) |
        +--------------------------------------------------+
     ---------------------------------------------------------------------------------------------------------------------------------------------------------------------------------------------------------------------
     Sym  No  Energy       Txxx       Txxy       Txxz       Tyyx       Tyyy       Tyyz       Tzzx       Tzzy       Tzzz       Txyx       Txyy       Txyz       Txzx       Txzy       Txzz       Tyzx       Tyzy       Tyzz
     ---------------------------------------------------------------------------------------------------------------------------------------------------------------------------------------------------------------------
       1   1    4.15     -1.145     -0.027      1.997      0.079     -0.464     -1.303     -0.023      0.119     -0.069     -0.042     -0.694     -2.193      1.064     -2.966     -0.480      0.650     -0.694     -0.092
       1   2    5.63     -3.940     -1.161      0.839     -3.910      4.118     -0.197     -3.193      3.794     -1.092     -0.870     -3.468      0.781      0.740      0.580     -0.324      0.248      0.044      1.064
       1   3    6.12      1.914      0.569     -0.344      0.876     -0.878      1.297      0.741     -0.390      0.711      0.045      0.116      3.073      1.950      2.672     -0.741      0.117      0.390     -0.373
       1   4    6.16      5.300      5.085     -0.031      2.721      1.124     -0.416      0.737      2.428     -0.433      2.664     -4.110     -0.245     -0.501     -0.139     -1.136      0.095     -0.251      0.452
       1   5    6.28      6.322      3.883     -0.133      2.456      6.233     -0.270     -0.474      3.090     -0.473      7.298      9.293     -0.276     -0.679     -0.410      0.285     -0.175      0.030      0.724
       1   6    6.86     17.875     -7.886      1.167      4.946    -10.720     -0.173     -0.192     -0.628     -0.593     -9.031      9.825     -0.546      1.419     -0.245      0.801      0.261     -0.529      0.060
       1   7    6.92     12.068     -3.071      2.202     -4.634      8.475      5.228      3.022     -2.111      3.495     -2.234     -1.570     -3.739      4.046     -4.690      2.118     -5.228      8.886     -2.055
       1   8    6.97    -11.526      7.713      1.497      6.605     -9.706      3.420     -2.054     -1.054      1.423      5.548      1.005     -3.337      2.840     -4.151     -1.338     -4.264      6.072     -0.822
       1   9    7.08     23.445      0.199     -1.651     -4.573      2.020     -1.931     -1.731      1.310     -1.321      6.371     -9.667      1.394     -2.795      1.600     -1.628      1.499     -2.792      0.673
       1  10    7.18      0.880     -0.241      7.911     -2.693     -0.049     -3.191      1.515      0.819      0.588      0.507     -3.332     -2.920      9.540     -2.773      1.550     -0.319     -4.144      0.711
     ------------------------------------------------------------------------


                    Transition probabilities (a.u.)         
                   -----------------------------------------
                    D  =  2*Df + 4*Dg, Linear   polarization
                    D  = -2*Df + 6*Dg, Circular polarization
                    Df = sum(i,j){ S_ii * S_jj }/30         
                    Dg = sum(i,j){ S_ij * S_ij }/30         

                   Two-photon cross sections                
         ---------------------------------------------------
          sigma  =  8*pi^3*alpha^2*hbar/e^4 * E^2*D   (a.u.)

                             Polarization ratio      
                      -------------------------------
                          R  = (-Df+3*Dg)/(Df+2*Dg)  


                   +-----------------------------------+
                   |   Two-photon absorption summary   |
                   +-----------------------------------+
   ---------------------------------------------------------------------------------
   Sym  No  Energy  Polarization         Df         Dg          D      sigma       R
   ---------------------------------------------------------------------------------
     1   1    4.15   Linear       0.302E-02  0.656E+00  0.263E+01  0.332E-01    1.49
     1   1    4.15   Circular     0.302E-02  0.656E+00  0.393E+01  0.497E-01    1.49
     1   2    5.63   Linear       0.315E-02  0.163E+00  0.658E+00  0.153E-01    1.48
     1   2    5.63   Circular     0.315E-02  0.163E+00  0.972E+00  0.226E-01    1.48
     1   3    6.12   Linear       0.310E+00  0.671E+00  0.330E+01  0.907E-01    1.03
     1   3    6.12   Circular     0.310E+00  0.671E+00  0.340E+01  0.934E-01    1.03
     1   4    6.16   Linear       0.468E-01  0.118E+00  0.564E+00  0.157E-01    1.09
     1   4    6.16   Circular     0.468E-01  0.118E+00  0.612E+00  0.170E-01    1.09
     1   5    6.28   Linear       0.420E-01  0.744E-01  0.382E+00  0.110E-01    0.95
     1   5    6.28   Circular     0.420E-01  0.744E-01  0.363E+00  0.105E-01    0.95
     1   6    6.86   Linear       0.294E-02  0.135E+00  0.547E+00  0.188E-01    1.47
     1   6    6.86   Circular     0.294E-02  0.135E+00  0.805E+00  0.277E-01    1.47
     1   7    6.92   Linear       0.900E+01  0.563E+01  0.405E+02  0.142E+01    0.39
     1   7    6.92   Circular     0.900E+01  0.563E+01  0.158E+02  0.554E+00    0.39
     1   8    6.97   Linear       0.356E+01  0.288E+01  0.186E+02  0.663E+00    0.54
     1   8    6.97   Circular     0.356E+01  0.288E+01  0.102E+02  0.361E+00    0.54
     1   9    7.08   Linear       0.159E+01  0.956E+00  0.701E+01  0.257E+00    0.36
     1   9    7.08   Circular     0.159E+01  0.956E+00  0.255E+01  0.939E-01    0.36
     1  10    7.18   Linear       0.119E+01  0.432E+01  0.197E+02  0.744E+00    1.20
     1  10    7.18   Circular     0.119E+01  0.432E+01  0.236E+02  0.890E+00    1.20
   ---------------------------------------------------------------------------------

  Total CPU  time used in RESPONSE:  6 minutes 35 seconds
  Total wall time used in RESPONSE:  6 minutes 35 seconds


                   .-------------------------------------------.
                   | End of Dynamic Property Section (RESPONS) |
                   `-------------------------------------------'

  Total CPU  time used in DALTON:  6 minutes 51 seconds
  Total wall time used in DALTON:  6 minutes 52 seconds

 
     Date and time (Linux)  : Mon May 11 20:33:38 2020
     Host name              : s71p23.deic.sdu.dk                      
